    1    1    1    1
  0.1200625E+02  0.2498483E-09  0.2498483E-09  0.2498483E-09  0.5000000E-15
  1.000000000000000E-004
  CAR 
 unknown system                          
    6  145   22
 
  0.0000000E+00  0.0000000E+00  0.0000000E+00  0.2441406E-03
   1       -0.499100
   2        6.270183
   3        6.270183
   4        6.270222
   5        8.175923
   6        8.175923
   7       29.825597
   8       29.825612
   9       29.825613
  10       36.144995
  11       36.144996
  12       40.022972
  13       40.022973
  14       40.023264
  15       41.323664
  16       41.323670
  17       41.323728
  18       53.960435
  19       55.630435
  20       55.631653
  21       55.631654
  22       62.519142
 
  0.6250000E-01  0.0000000E+00  0.0000000E+00  0.2929688E-02
   1       -0.333884
   2        6.208886
   3        6.261612
   4        6.381091
   5        8.108796
   6        8.181067
   7       29.262176
   8       29.727286
   9       29.892178
  10       35.705840
  11       36.660680
  12       38.379463
  13       38.541342
  14       40.279461
  15       42.241932
  16       42.897505
  17       42.974076
  18       53.623230
  19       55.582881
  20       55.668804
  21       56.375880
  22       62.358747
 
  0.1250000E+00  0.0000000E+00  0.0000000E+00  0.2929688E-02
   1        0.145135
   2        6.037688
   3        6.215953
   4        6.707195
   5        7.962253
   6        8.198768
   7       27.828690
   8       29.280945
   9       30.069674
  10       35.257015
  11       36.281065
  12       36.641624
  13       38.165375
  14       41.056950
  15       44.266522
  16       44.841451
  17       45.159406
  18       53.384205
  19       55.413980
  20       55.808027
  21       57.682944
  22       62.082314
 
  0.1875000E+00  0.0000000E+00  0.0000000E+00  0.2929688E-02
   1        0.880650
   2        5.789876
   3        6.089254
   4        7.210998
   5        7.860588
   6        8.231361
   7       25.829233
   8       28.349142
   9       30.305355
  10       34.157917
  11       35.542679
  12       35.603369
  13       39.381116
  14       42.366491
  15       46.568773
  16       46.665696
  17       47.283189
  18       53.234106
  19       55.042309
  20       55.951738
  21       58.207248
  22       62.110110
 
  0.2500000E+00  0.0000000E+00  0.0000000E+00  0.2929688E-02
   1        1.744786
   2        5.506779
   3        5.977533
   4        7.839103
   5        7.880595
   6        8.278538
   7       23.529797
   8       27.163563
   9       30.538394
  10       32.160543
  11       34.928017
  12       36.735578
  13       40.115921
  14       44.165060
  15       48.667585
  16       49.074126
  17       49.261886
  18       53.455677
  19       54.311964
  20       56.098054
  21       57.599702
  22       62.852125
 
  0.3125000E+00  0.0000000E+00  0.0000000E+00  0.2929688E-02
   1        2.487257
   2        5.236306
   3        6.144313
   4        7.984608
   5        8.346858
   6        8.518595
   7       21.178419
   8       26.023340
   9       30.413102
  10       30.732528
  11       34.697523
  12       38.425513
  13       40.204546
  14       46.486427
  15       50.695981
  16       51.059539
  17       51.255991
  18       53.141922
  19       54.512808
  20       56.330731
  21       56.758823
  22       61.686415
 
  0.3750000E+00  0.0000000E+00  0.0000000E+00  0.2929688E-02
   1        2.854377
   2        5.016327
   3        6.811626
   4        8.116551
   5        8.414588
   6        9.153813
   7       18.987015
   8       25.106368
   9       29.028662
  10       30.877998
  11       34.720779
  12       39.891306
  13       40.492955
  14       49.258370
  15       50.800407
  16       51.964621
  17       52.597065
  18       53.383814
  19       55.109326
  20       57.211888
  21       57.529135
  22       61.703644
 
  0.4375000E+00  0.0000000E+00  0.0000000E+00  0.2929688E-02
   1        2.930039
   2        4.873925
   3        7.704470
   4        8.215417
   5        8.474957
   6        9.614188
   7       17.293507
   8       24.517712
   9       28.118168
  10       30.979840
  11       34.852982
  12       39.512089
  13       42.796711
  14       48.565682
  15       52.263888
  16       52.753228
  17       53.453996
  18       54.388676
  19       54.583573
  20       58.662665
  21       59.765499
  22       61.681836
 
  0.5000000E+00  0.0000000E+00  0.0000000E+00  0.1464844E-02
   1        2.928100
   2        4.819880
   3        8.176704
   4        8.214125
   5        8.486911
   6        9.781951
   7       16.597602
   8       24.313556
   9       27.798048
  10       30.947662
  11       34.904610
  12       39.330874
  13       44.402962
  14       46.871846
  15       53.071979
  16       53.621694
  17       54.065198
  18       54.211487
  19       54.460065
  20       59.224377
  21       59.615276
  22       60.420390
 
  0.1250000E+00  0.6250000E-01  0.0000000E+00  0.5859375E-02
   1       -0.011315
   2        6.127990
   3        6.183623
   4        6.616194
   5        7.991207
   6        8.202135
   7       28.393391
   8       29.197636
   9       30.156739
  10       35.246318
  11       36.190224
  12       37.534871
  13       38.479938
  14       40.196077
  15       43.732629
  16       44.251319
  17       44.707351
  18       53.389471
  19       55.569189
  20       55.659738
  21       57.348439
  22       62.126715
 
  0.1875000E+00  0.6250000E-01  0.1387779E-16  0.1171875E-01
   1        0.599862
   2        5.922817
   3        6.075904
   4        7.044938
   5        7.844921
   6        8.245674
   7       26.827937
   8       28.300555
   9       30.444683
  10       34.041946
  11       35.175750
  12       37.296592
  13       39.249815
  14       41.074503
  15       45.125974
  16       46.057954
  17       47.121362
  18       53.150420
  19       55.347050
  20       55.777694
  21       58.109948
  22       61.897670
 
  0.2500000E+00  0.6250000E-01  0.0000000E+00  0.1171875E-01
   1        1.415741
   2        5.652735
   3        5.925806
   4        7.625370
   5        7.794754
   6        8.304212
   7       24.728259
   8       27.220351
   9       30.595948
  10       32.256733
  11       35.755581
  12       36.437013
  13       40.482409
  14       42.672642
  15       46.579555
  16       48.271505
  17       49.466048
  18       53.082699
  19       54.858992
  20       55.881129
  21       57.862761
  22       62.154964
 
  0.3125000E+00  0.6250000E-01  0.0000000E+00  0.1171875E-01
   1        2.256075
   2        5.372082
   3        5.883437
   4        7.860152
   5        8.307353
   6        8.389759
   7       22.390111
   8       26.119468
   9       30.020739
  10       31.383917
  11       35.721467
  12       37.043782
  13       41.111126
  14       44.774167
  15       48.473788
  16       50.540941
  17       51.459085
  18       53.568009
  19       54.111299
  20       56.140981
  21       57.061759
  22       62.035096
 
  0.3750000E+00  0.6250000E-01  0.0000000E+00  0.1171875E-01
   1        2.826309
   2        5.127707
   3        6.229590
   4        8.002434
   5        8.452627
   6        9.046618
   7       20.088474
   8       25.158390
   9       28.797791
  10       31.359826
  11       35.516473
  12       38.283297
  13       41.496420
  14       47.353629
  15       50.158574
  16       51.904499
  17       52.509377
  18       53.487295
  19       55.244731
  20       56.219714
  21       57.354284
  22       61.730647
 
  0.4375000E+00  0.6250000E-01  0.0000000E+00  0.1171875E-01
   1        3.012332
   2        4.948410
   3        6.944592
   4        8.129929
   5        8.577660
   6        9.689929
   7       18.076473
   8       24.449630
   9       27.787181
  10       31.421314
  11       35.535795
  12       38.875384
  13       42.590830
  14       49.311645
  15       50.314138
  16       52.308970
  17       53.511558
  18       54.261656
  19       54.996326
  20       57.226692
  21       59.413897
  22       62.511823
 
  0.5000000E+00  0.6250000E-01 -0.2775558E-16  0.1171875E-01
   1        3.025477
   2        4.853974
   3        7.514413
   4        8.163527
   5        8.747270
   6       10.129498
   7       16.787301
   8       24.074483
   9       27.228263
  10       31.461607
  11       35.628290
  12       38.868528
  13       44.442628
  14       47.297291
  15       52.793034
  16       53.304319
  17       53.947891
  18       54.313390
  19       54.641417
  20       58.512127
  21       60.042176
  22       61.154908
 
  0.2500000E+00  0.1250000E+00  0.0000000E+00  0.5859375E-02
   1        1.302734
   2        5.770759
   3        5.826142
   4        7.588298
   5        7.729816
   6        8.335685
   7       25.553712
   8       26.708809
   9       30.901192
  10       31.914536
  11       35.309006
  12       37.966653
  13       40.966707
  14       41.237737
  15       45.583204
  16       48.053733
  17       49.761656
  18       52.915954
  19       55.161536
  20       55.748893
  21       57.922582
  22       61.942381
 
  0.3125000E+00  0.1250000E+00  0.0000000E+00  0.1171875E-01
   1        2.141485
   2        5.500035
   3        5.655770
   4        7.722552
   5        8.256757
   6        8.463440
   7       23.639812
   8       25.338110
   9       30.098495
  10       31.326274
  11       35.773998
  12       38.037625
  13       42.132828
  14       42.886756
  15       46.501450
  16       50.239809
  17       52.103973
  18       52.943793
  19       54.677263
  20       55.890030
  21       57.246577
  22       62.026264
 
  0.3750000E+00  0.1250000E+00  0.2775558E-16  0.1171875E-01
   1        2.882664
   2        5.232666
   3        5.695357
   4        7.831736
   5        8.488123
   6        9.125790
   7       21.350370
   8       24.328070
   9       28.653479
  10       31.615875
  11       36.371200
  12       38.049157
  13       42.858784
  14       45.103144
  15       48.054520
  16       52.274407
  17       52.299484
  18       54.215902
  19       54.634257
  20       56.361125
  21       57.210634
  22       61.974127
 
  0.4375000E+00  0.1250000E+00  0.2775558E-16  0.1171875E-01
   1        3.245201
   2        5.039176
   3        6.097664
   4        7.994498
   5        8.592766
   6        9.970219
   7       19.134165
   8       23.552865
   9       27.535739
  10       31.829051
  11       36.822712
  12       38.191424
  13       43.496035
  14       47.730004
  15       48.956999
  16       52.267978
  17       53.537872
  18       54.471302
  19       55.746725
  20       55.997715
  21       59.182119
  22       62.238819
 
  0.5000000E+00  0.1250000E+00  0.0000000E+00  0.1171875E-01
   1        3.300628
   2        4.921030
   3        6.620628
   4        8.103041
   5        8.738347
   6       10.762542
   7       17.345372
   8       23.048748
   9       26.813882
  10       31.958582
  11       37.217876
  12       38.089669
  13       44.649319
  14       47.935953
  15       50.674698
  16       52.908795
  17       53.980773
  18       54.544624
  19       55.229407
  20       57.092104
  21       60.441652
  22       61.344451
 
 -0.4375000E+00  0.1250000E+00  0.0000000E+00  0.5859375E-02
   1        3.290123
   2        4.878429
   3        6.843857
   4        8.124502
   5        8.829310
   6       11.154024
   7       16.576891
   8       22.865464
   9       26.562124
  10       31.987871
  11       37.563684
  12       37.780345
  13       46.098613
  14       46.453413
  15       52.656493
  16       53.554836
  17       53.563704
  18       54.329963
  19       54.441056
  20       57.570310
  21       59.849114
  22       61.861934
 
  0.3750000E+00  0.1875000E+00  0.0000000E+00  0.5859375E-02
   1        2.924442
   2        5.255129
   3        5.509261
   4        7.747142
   5        8.497331
   6        9.176892
   7       22.412005
   8       23.306158
   9       28.765648
  10       31.631906
  11       35.926479
  12       39.562454
  13       42.599223
  14       44.835121
  15       46.665352
  16       52.165115
  17       52.521859
  18       54.328441
  19       54.481316
  20       56.706555
  21       56.985441
  22       62.018356
 
  0.4375000E+00  0.1875000E+00  0.0000000E+00  0.1171875E-01
   1        3.508780
   2        5.040120
   3        5.584207
   4        7.868601
   5        8.581171
   6       10.157951
   7       20.409757
   8       22.129688
   9       27.699707
  10       31.986345
  11       36.168229
  12       40.313690
  13       43.553077
  14       46.454731
  15       47.584516
  16       52.432044
  17       53.558894
  18       54.556517
  19       55.038780
  20       56.828220
  21       58.798904
  22       62.144637
 
  0.5000000E+00  0.1875000E+00  0.0000000E+00  0.1171875E-01
   1        3.698065
   2        4.948464
   3        5.877977
   4        8.026460
   5        8.662588
   6       11.228809
   7       18.310529
   8       21.460281
   9       26.950395
  10       32.290601
  11       36.422024
  12       40.339218
  13       44.687333
  14       47.593373
  15       48.962213
  16       52.917689
  17       53.981397
  18       54.624812
  19       55.683000
  20       56.259861
  21       60.337859
  22       60.610518
 
 -0.4375000E+00  0.1875000E+00 -0.2775558E-16  0.1171875E-01
   1        3.693076
   2        4.915675
   3        6.139886
   4        8.120130
   5        8.745093
   6       12.155487
   7       16.801550
   8       21.110742
   9       26.562844
  10       32.471850
  11       36.583780
  12       40.175863
  13       45.421282
  14       48.063162
  15       50.883551
  16       53.342593
  17       53.474670
  18       54.561926
  19       54.994101
  20       56.892429
  21       59.491147
  22       60.368311
 
  0.5000000E+00  0.2500000E+00  0.0000000E+00  0.5859375E-02
   1        3.964750
   2        4.875700
   3        5.586761
   4        7.989619
   5        8.627485
   6       11.393302
   7       19.320108
   8       20.201986
   9       27.075455
  10       32.447721
  11       35.913150
  12       42.704585
  13       43.460371
  14       46.790866
  15       48.930461
  16       52.959784
  17       53.985500
  18       54.866874
  19       55.000638
  20       56.857554
  21       59.666809
  22       60.635549
 
 -0.4375000E+00  0.2500000E+00  0.0000000E+00  0.1171875E-01
   1        4.117915
   2        4.881478
   3        5.619715
   4        8.145937
   5        8.640672
   6       12.740350
   7       17.536253
   8       19.445201
   9       26.705438
  10       32.909920
  11       35.644775
  12       42.841759
  13       44.903665
  14       47.342240
  15       50.656458
  16       52.743518
  17       54.034137
  18       54.764501
  19       55.406192
  20       55.531293
  21       58.625339
  22       60.482745
 
 -0.3750000E+00  0.2500000E+00  0.0000000E+00  0.5859375E-02
   1        4.126630
   2        4.927053
   3        5.633699
   4        8.220628
   5        8.639509
   6       13.591922
   7       16.472694
   8       19.249241
   9       26.589557
  10       33.134675
  11       35.493458
  12       42.714708
  13       45.377771
  14       49.207432
  15       50.050686
  16       52.453796
  17       53.726816
  18       54.732019
  19       55.107493
  20       56.676626
  21       57.164707
  22       60.615016
 
 -0.3750000E+00  0.3125000E+00  0.0000000E+00  0.5859375E-02
   1        4.370458
   2        4.968967
   3        5.324195
   4        8.321996
   5        8.533952
   6       14.391077
   7       16.355202
   8       18.295184
   9       26.622505
  10       33.676065
  11       34.776746
  12       43.725196
  13       46.643259
  14       47.504152
  15       50.022232
  16       52.804077
  17       54.263691
  18       54.586173
  19       55.151601
  20       55.527573
  21       56.681941
  22       60.804414
 
  0.6250000E-01  0.6250000E-01  0.6250000E-01  0.1464844E-02
   1       -0.170784
   2        6.261092
   3        6.261118
   4        6.380853
   5        7.958362
   6        8.260353
   7       28.700242
   8       29.906480
   9       29.906497
  10       34.381500
  11       37.883344
  12       37.883452
  13       38.088879
  14       40.056396
  15       42.531811
  16       44.006287
  17       44.006396
  18       53.331543
  19       55.705998
  20       55.706808
  21       56.804498
  22       62.108506
 
  0.1875000E+00  0.6250000E-01  0.6250000E-01  0.1953125E-02
   1        0.452537
   2        5.978284
   3        5.978313
   4        7.030196
   5        8.068792
   6        8.068798
   7       27.693663
   8       27.693689
   9       30.669211
  10       33.612309
  11       37.080309
  12       37.080332
  13       39.437811
  14       39.437977
  15       44.361407
  16       46.361625
  17       46.361711
  18       53.239897
  19       55.481330
  20       55.482313
  21       57.989198
  22       62.134731
 
  0.2500000E+00  0.6250000E-01  0.6250000E-01  0.5859375E-02
   1        1.170745
   2        5.710125
   3        5.803323
   4        7.603218
   5        7.964722
   6        8.163881
   7       25.802537
   8       26.795470
   9       31.230469
  10       31.360188
  11       37.033338
  12       38.475505
  13       39.034768
  14       40.993622
  15       44.877523
  16       48.508875
  17       49.064235
  18       53.271766
  19       55.209093
  20       55.604187
  21       58.296596
  22       62.467723
 
  0.3125000E+00  0.6250000E-01  0.6250000E-01  0.5859375E-02
   1        2.028299
   2        5.424600
   3        5.649487
   4        7.955089
   5        8.259562
   6        8.305937
   7       23.600741
   8       25.803688
   9       29.538627
  10       31.692204
  11       37.635066
  12       37.665836
  13       40.334344
  14       43.002460
  15       46.040537
  16       50.762985
  17       51.669376
  18       53.535160
  19       54.494939
  20       55.822131
  21       57.711314
  22       63.195513
 
  0.3750000E+00  0.6250000E-01  0.6250000E-01  0.5859375E-02
   1        2.779744
   2        5.160799
   3        5.735225
   4        8.030348
   5        8.347893
   6        9.083508
   7       21.275285
   8       24.858152
   9       28.093370
  10       31.965449
  11       37.137795
  12       38.897200
  13       40.601137
  14       45.391393
  15       48.015868
  16       52.501447
  17       53.119183
  18       53.433205
  19       54.606730
  20       56.018377
  21       57.396790
  22       62.206196
 
  0.4375000E+00  0.6250000E-01  0.6250000E-01  0.5859375E-02
   1        3.138840
   2        4.955687
   3        6.284294
   4        8.135054
   5        8.426264
   6        9.876685
   7       19.066987
   8       24.095383
   9       26.989793
  10       32.107126
  11       36.931892
  12       40.283039
  13       40.719039
  14       48.143714
  15       50.186996
  16       51.192136
  17       53.713541
  18       54.255352
  19       55.323627
  20       55.905221
  21       59.096250
  22       62.610492
 
  0.5000000E+00  0.6250000E-01  0.6250000E-01  0.5859375E-02
   1        3.194014
   2        4.824265
   3        7.010471
   4        8.207538
   5        8.483329
   6       10.574813
   7       17.318726
   8       23.595194
   9       26.268983
  10       32.168185
  11       36.913887
  12       39.863026
  13       42.826420
  14       48.802425
  15       51.208995
  16       51.719098
  17       54.058165
  18       54.715926
  19       54.741811
  20       56.996322
  21       60.945943
  22       61.005173
 
 -0.4375000E+00  0.6250000E-01  0.6250000E-01  0.2929688E-02
   1        3.184931
   2        4.779229
   3        7.345319
   4        8.226530
   5        8.496128
   6       10.903896
   7       16.584668
   8       23.421565
   9       26.013429
  10       32.182127
  11       36.933510
  12       39.662650
  13       44.241541
  14       47.308198
  15       52.273547
  16       53.456613
  17       53.956405
  18       53.970499
  19       54.463836
  20       58.054233
  21       59.323124
  22       61.548944
 
  0.6250000E-01  0.1250000E+00  0.6250000E-01  0.5859375E-02
   1        0.301735
   2        6.128670
   3        6.236238
   4        6.674674
   5        7.732326
   6        8.333720
   7       27.583275
   8       29.457143
   9       29.918053
  10       33.527596
  11       36.452007
  12       36.706923
  13       39.790727
  14       40.602591
  15       43.901493
  16       45.873070
  17       45.914989
  18       52.989997
  19       55.669015
  20       55.846028
  21       57.722464
  22       61.642907
 
  0.3125000E+00  0.1250000E+00  0.6250000E-01  0.5859375E-02
   1        1.950200
   2        5.488057
   3        5.502319
   4        7.980815
   5        8.228731
   6        8.315256
   7       24.517777
   8       25.202358
   9       29.089580
  10       32.028786
  11       37.713284
  12       39.104833
  13       40.680056
  14       41.368317
  15       44.800891
  16       50.855036
  17       51.600121
  18       53.377788
  19       54.942659
  20       55.448924
  21       57.936738
  22       62.932768
 
  0.3750000E+00  0.1250000E+00  0.6250000E-01  0.1171875E-01
   1        2.789223
   2        5.214181
   3        5.366051
   4        8.012583
   5        8.343403
   6        9.142302
   7       22.533800
   8       24.058876
   9       27.393193
  10       32.675643
  11       38.080257
  12       39.144483
  13       41.824041
  14       43.374546
  15       45.761000
  16       52.863567
  17       53.300641
  18       54.067924
  19       54.318243
  20       55.859904
  21       57.404934
  22       62.803812
 
  0.4375000E+00  0.1250000E+00  0.6250000E-01  0.1171875E-01
   1        3.374266
   2        4.991733
   3        5.563057
   4        8.098072
   5        8.433558
   6       10.046885
   7       20.277953
   8       23.214144
   9       26.177108
  10       33.057561
  11       38.391634
  12       39.466397
  13       42.044221
  14       45.965529
  15       47.829676
  16       52.281850
  17       53.814415
  18       54.563455
  19       54.897551
  20       56.064316
  21       58.356344
  22       62.736807
 
  0.5000000E+00  0.1250000E+00  0.6250000E-01  0.1171875E-01
   1        3.526154
   2        4.842736
   3        6.142905
   4        8.197975
   5        8.504062
   6       10.975339
   7       18.207291
   8       22.610833
   9       25.355289
  10       33.230625
  11       38.575456
  12       39.761193
  13       42.818665
  14       48.754175
  15       49.340107
  16       51.091506
  17       54.094680
  18       54.856606
  19       55.461233
  20       55.600244
  21       59.913230
  22       61.659726
 
 -0.4375000E+00  0.1250000E+00  0.6250000E-01  0.1171875E-01
   1        3.510407
   2        4.767431
   3        6.622874
   4        8.260949
   5        8.548130
   6       11.727362
   7       16.794266
   8       22.291547
   9       24.928466
  10       33.293965
  11       38.838227
  12       39.508666
  13       44.384385
  14       47.849526
  15       51.496309
  16       52.024917
  17       53.924719
  18       54.383095
  19       54.970463
  20       56.888528
  21       59.136712
  22       59.946877
 
  0.6250000E-01  0.1875000E+00  0.6250000E-01  0.5859375E-02
   1        1.026465
   2        5.892610
   3        6.118320
   4        7.174171
   5        7.582448
   6        8.399843
   7       25.852755
   8       28.274694
   9       29.825791
  10       33.770897
  11       34.777860
  12       35.856973
  13       41.295227
  14       41.924453
  15       45.689822
  16       47.810605
  17       47.835444
  18       52.659896
  19       55.353718
  20       55.985518
  21       57.824346
  22       61.492739
 
  0.1250000E+00  0.1875000E+00  0.6250000E-01  0.5859375E-02
   1        0.893459
   2        6.063017
   3        6.129803
   4        7.017053
   5        7.476242
   6        8.442884
   7       26.505608
   8       28.296717
   9       29.945308
  10       32.782187
  11       34.995895
  12       36.979629
  13       40.908935
  14       41.776593
  15       44.991414
  16       47.186169
  17       48.156887
  18       52.466506
  19       55.699042
  20       55.894978
  21       57.735738
  22       61.273948
 
  0.4375000E+00  0.1875000E+00  0.6250000E-01  0.5859375E-02
   1        3.524219
   2        5.015099
   3        5.231780
   4        8.064767
   5        8.448341
   6       10.116310
   7       21.347487
   8       22.160268
   9       25.970397
  10       33.487779
  11       38.070053
  12       40.397386
  13       42.981538
  14       44.770885
  15       46.437812
  16       52.674147
  17       53.790726
  18       54.507896
  19       54.673836
  20       57.158818
  21       57.270565
  22       62.792414
 
  0.5000000E+00  0.1875000E+00  0.6250000E-01  0.1171875E-01
   1        3.906237
   2        4.871405
   3        5.457744
   4        8.160954
   5        8.520621
   6       11.206606
   7       19.400801
   8       21.151052
   9       25.083865
  10       34.022773
  11       38.202964
  12       41.254288
  13       43.427591
  14       47.029852
  15       48.024968
  16       51.626401
  17       54.135202
  18       54.660485
  19       54.956350
  20       56.604704
  21       58.447056
  22       61.720704
 
 -0.4375000E+00  0.1875000E+00  0.6250000E-01  0.1171875E-01
   1        3.932935
   2        4.798369
   3        5.879716
   4        8.260008
   5        8.559197
   6       12.328785
   7       17.494217
   8       20.640743
   9       24.571688
  10       34.299444
  11       38.387177
  12       41.367977
  13       44.697445
  14       48.281357
  15       49.369369
  16       51.533983
  17       53.846516
  18       54.655669
  19       55.230954
  20       55.484786
  21       57.790914
  22       60.538450
 
 -0.3750000E+00  0.1875000E+00  0.6250000E-01  0.5859375E-02
   1        3.912140
   2        4.775627
   3        6.070951
   4        8.303044
   5        8.572191
   6       12.973083
   7       16.570219
   8       20.467708
   9       24.404773
  10       34.384278
  11       38.475236
  12       41.285412
  13       46.238637
  14       46.971261
  15       51.075409
  16       52.393865
  17       52.642031
  18       54.403641
  19       55.231957
  20       56.172417
  21       56.437407
  22       60.243837
 
  0.6250000E-01  0.2500000E+00  0.6250000E-01  0.5859375E-02
   1        1.877686
   2        5.618337
   3        5.963649
   4        7.612184
   5        7.805203
   6        8.474566
   7       23.628385
   8       27.043016
   9       29.446169
  10       33.428805
  11       34.252063
  12       35.814211
  13       42.265909
  14       43.728776
  15       47.837884
  16       49.762356
  17       49.779599
  18       52.824576
  19       54.725710
  20       56.095989
  21       57.109375
  22       61.852664
 
  0.1250000E+00  0.2500000E+00  0.6250000E-01  0.1171875E-01
   1        1.681103
   2        5.836706
   3        5.957400
   4        7.380286
   5        7.583728
   6        8.549702
   7       24.829960
   8       26.753835
   9       29.715592
  10       32.455833
  11       34.291541
  12       37.056625
  13       41.976946
  14       43.460124
  15       46.472278
  16       48.672471
  17       50.475202
  18       52.096102
  19       55.228619
  20       56.000035
  21       57.073774
  22       61.527729
 
 -0.4375000E+00  0.2500000E+00  0.6250000E-01  0.5859375E-02
   1        4.192626
   2        4.848776
   3        5.474845
   4        8.256388
   5        8.555988
   6       12.541929
   7       18.346864
   8       19.419377
   9       24.510037
  10       34.830217
  11       37.799356
  12       43.491897
  13       43.850945
  14       48.319235
  15       48.693496
  16       51.170925
  17       54.059886
  18       54.271162
  19       54.921608
  20       55.991784
  21       57.102572
  22       60.770082
 
 -0.3750000E+00  0.2500000E+00  0.6250000E-01  0.1171875E-01
   1        4.241380
   2        4.891665
   3        5.548110
   4        8.350339
   5        8.539923
   6       13.889236
   7       16.779271
   8       18.839914
   9       24.250900
  10       35.363436
  11       37.470943
  12       43.685394
  13       45.888911
  14       48.008596
  15       49.913557
  16       51.067430
  17       53.133864
  18       54.171283
  19       54.631156
  20       55.395095
  21       55.827950
  22       60.739577
 
  0.6250000E-01  0.3125000E+00  0.6250000E-01  0.5859375E-02
   1        2.611733
   2        5.352142
   3        6.012065
   4        7.787851
   5        8.492322
   6        8.580014
   7       21.267399
   8       25.954976
   9       28.683368
  10       32.612660
  11       34.500237
  12       36.548413
  13       42.765433
  14       46.008518
  15       49.629020
  16       50.987939
  17       51.543743
  18       53.946670
  19       54.512301
  20       56.447749
  21       56.456820
  22       61.617550
 
  0.1250000E+00  0.3125000E+00  0.6250000E-01  0.1171875E-01
   1        2.494417
   2        5.553402
   3        5.821976
   4        7.502533
   5        8.243045
   6        8.704621
   7       22.581357
   8       25.593930
   9       28.958462
  10       32.236613
  11       34.426218
  12       37.089329
  13       43.599231
  14       44.583598
  15       48.100543
  16       50.231283
  17       51.647659
  18       53.577343
  19       54.653681
  20       56.315123
  21       56.611120
  22       61.635523
 
  0.1875000E+00  0.3125000E+00  0.6250000E-01  0.5859375E-02
   1        2.458566
   2        5.578470
   3        5.822256
   4        7.350002
   5        8.179641
   6        8.760001
   7       23.615820
   8       24.663202
   9       29.949881
  10       31.000166
  11       34.347924
  12       38.581948
  13       42.215894
  14       45.642008
  15       46.813925
  16       49.965470