    4    4    1    2
  0.1112960E+02  0.3978116E-09  0.3978116E-09  0.3978318E-09  0.5000000E-15
  1.000000000000000E-004
  CAR 
 unknown system                          
   29  320   80
 
  0.0000000E+00  0.0000000E+00  0.0000000E+00  0.3125000E-02
   1       -3.715960     -3.763301
   2        3.961053      3.412240
   3        3.961053      3.412578
   4        3.961072      3.464942
   5        4.671116      3.464942
   6        4.671438      3.464981
   7        6.508785      4.830915
   8        6.508812      4.830915
   9        6.508813      4.830952
  10        7.684294      6.648312
  11        7.684294      6.648468
  12        7.684333      6.648468
  13        8.297199      6.956189
  14        8.297678      6.956752
  15        9.773676      7.039640
  16        9.774208      7.039996
  17       11.835009     11.484969
  18       11.835009     11.484969
  19       11.835604     11.485424
  20       12.023792     11.698223
  21       14.417172     13.363428
  22       14.417333     13.363575
  23       14.417334     13.363576
  24       17.437394     16.806197
  25       17.437396     16.806198
  26       17.439462     16.808461
  27       17.745649     17.467044
  28       19.844830     19.166603
  29       19.846256     19.168085
  30       27.438144     26.305562
  31       32.084374     32.125743
  32       32.084375     32.125743
  33       32.086747     32.128116
  34       32.366971     32.157345
  35       32.369437     32.159899
  36       32.369438     32.159899
  37       33.915362     33.957973
  38       33.916385     33.959064
  39       35.288916     34.821715
  40       35.288918     34.821716
  41       35.291793     34.824629
  42       42.700517     38.926422
  43       42.700517     38.926422
  44       42.700519     38.926458
  45       44.767084     43.965086
  46       44.770506     43.968433
  47       45.954921     45.622022
  48       45.957078     45.624582
  49       45.957078     45.624582
  50       46.134307     46.143886
  51       46.138203     46.147688
  52       46.138203     46.147689
  53       46.437576     46.232194
  54       46.440951     46.232194
  55       46.440953     46.232915
  56       46.666423     46.457636
  57       46.666424     46.461030
  58       46.666989     46.461031
  59       46.986932     46.841800
  60       50.682027     50.576522
  61       50.682027     50.576523
  62       50.685739     50.580417
  63       51.252334     50.918931
  64       51.252335     50.918932
  65       51.253643     50.920089
  66       51.318661     51.129172
  67       54.240381     53.950221
  68       54.245308     53.955259
  69       57.451289     56.571813
  70       57.451290     56.571813
  71       57.451324     56.572060
  72       58.959718     57.367226
  73       58.959718     58.006094
  74       58.963490     58.006095
  75       60.365612     58.010112
  76       63.402976     62.371262
  77       63.451301     62.648059
  78       69.683448     69.115587
  79       69.689462     69.119811
  80       70.829748     69.343004
 
  0.1282051E-01  0.0000000E+00  0.1282051E-01  0.3125000E-02
   1       -3.712978     -3.760280
   2        3.953712      3.378348
   3        3.962113      3.413921
   4        3.962131      3.466156
   5        4.672825      3.466194
   6        4.675098      3.496094
   7        6.505434      4.828595
   8        6.509012      4.831366
   9        6.509038      4.831403
  10        7.676216      6.642883
  11        7.680576      6.645612
  12        7.680613      6.645770
  13        8.297486      6.956538
  14        8.304498      6.960474
  15        9.772296      7.038473
  16        9.772818      7.040235
  17       11.776220     11.421052
  18       11.838336     11.480217
  19       11.838922     11.480656
  20       12.090285     11.767114
  21       14.406824     13.359237
  22       14.407008     13.362370
  23       14.413551     13.362546
  24       17.398258     16.762713
  25       17.454926     16.821296
  26       17.456978     16.823547
  27       17.759442     17.480954
  28       19.846131     19.168126
  29       19.883601     19.209862
  30       27.448489     26.316321
  31       31.957134     31.899283
  32       31.959636     31.901888
  33       32.012203     32.052456
  34       32.369975     32.160467
  35       32.469475     32.356254
  36       32.471795     32.358552
  37       33.856720     33.869441
  38       33.993197     34.036450
  39       35.316885     34.852431
  40       35.319776     34.855365
  41       35.342615     34.905216
  42       42.697435     38.926329
  43       42.699961     38.926462
  44       42.699965     38.926498
  45       44.689597     43.893862
  46       44.754916     43.959951
  47       45.643535     45.445379
  48       45.644720     45.445810
  49       45.936889     45.608201
  50       46.069584     45.888292
  51       46.074039     45.891883
  52       46.161681     46.164303
  53       46.440624     46.263983
  54       46.495207     46.267108
  55       46.498433     46.297782
  56       46.741057     46.460472
  57       46.979105     46.839358
  58       46.981267     46.850781
  59       46.986579     46.852756
  60       50.585770     50.450644
  61       50.588797     50.453399
  62       50.643714     50.530339
  63       51.239178     50.909972
  64       51.332812     51.071256
  65       51.373060     51.071283
  66       51.373686     51.139004
  67       54.248633     53.958839
  68       54.279335     53.988762
  69       57.359854     56.478342
  70       57.360021     56.478349
  71       57.471040     56.597943
  72       58.931685     57.325308
  73       59.056204     58.047173
  74       59.059773     58.105306
  75       60.391745     58.109080
  76       63.417364     62.382771
  77       63.469011     62.662446
  78       69.470414     68.905280
  79       69.678146     69.109158
  80       70.870255     69.357626
 
  0.2564103E-01  0.0000000E+00  0.2564103E-01  0.3125000E-02
   1       -3.704010     -3.751192
   2        3.932181      3.324252
   3        3.965287      3.418201
   4        3.965304      3.469791
   5        4.677255      3.469829
   6        4.686316      3.541761
   7        6.495192      4.821616
   8        6.509687      4.832717
   9        6.509713      4.832755
  10        7.653488      6.627164
  11        7.669501      6.637555
  12        7.669531      6.637718
  13        8.297291      6.956373
  14        8.324668      6.971878
  15        9.768158      7.034756
  16        9.768654      7.041159
  17       11.676767     11.308886
  18       11.848011     11.465675
  19       11.848567     11.466068
  20       12.212650     11.893945
  21       14.376916     13.346423
  22       14.377165     13.359946
  23       14.402412     13.360203
  24       17.288347     16.641590
  25       17.506602     16.866080
  26       17.508614     16.868293
  27       17.800553     17.522429
  28       19.846864     19.169397
  29       19.991373     19.329266
  30       27.479579     26.348680
  31       31.728295     31.634116
  32       31.730924     31.636844
  33       31.823982     31.861480
  34       32.371580     32.162167
  35       32.625929     32.540871
  36       32.628071     32.542984
  37       33.700287     33.662035
  38       34.197570     34.242092
  39       35.398741     34.942246
  40       35.401672     34.945230
  41       35.481889     35.095025
  42       42.687431     38.926030
  43       42.698242     38.926568
  44       42.698254     38.926606
  45       44.484693     43.698588
  46       44.713659     43.937841
  47       45.152802     45.021487
  48       45.153807     45.022059
  49       45.878046     45.560232
  50       45.878643     45.618872
  51       45.882078     45.622899
  52       46.229109     46.213237
  53       46.439643     46.412730
  54       46.660222     46.414876
  55       46.662908     46.458804
  56       46.935771     46.473897
  57       46.982145     46.830095
  58       47.478002     47.367796
  59       47.479883     47.369367
  60       50.410059     50.263534
  61       50.412472     50.265704
  62       50.535918     50.399979
  63       51.210033     50.885147
  64       51.365032     51.166537
  65       51.624128     51.338433
  66       51.624137     51.338974
  67       54.262847     53.973938
  68       54.386605     54.093954
  69       57.133759     56.249573
  70       57.134270     56.249959
  71       57.529321     56.674692
  72       58.852590     57.220686
  73       59.297412     58.149583
  74       59.300631     58.350682
  75       60.466063     58.354050
  76       63.460729     62.416367
  77       63.520302     62.705860
  78       69.023551     68.462885
  79       69.644371     69.082389
  80       70.872765     69.411368
 
  0.3846154E-01  0.0000000E+00  0.3846154E-01  0.3125000E-02
   1       -3.689065     -3.736049
   2        3.897758      3.265143
   3        3.970568      3.425327
   4        3.970585      3.475839
   5        4.684616      3.475877
   6        4.703690      3.586966
   7        6.477789      4.809933
   8        6.510809      4.834969
   9        6.510833      4.835008
  10        7.619803      6.603726
  11        7.651314      6.624272
  12        7.651332      6.624443
  13        8.296960      6.956083
  14        8.354599      6.988333
  15        9.761256      7.028550
  16        9.761722      7.042679
  17       11.576245     11.191311
  18       11.863106     11.440553
  19       11.863612     11.440872
  20       12.350682     12.035098
  21       14.330649     13.325729
  22       14.331001     13.358267
  23       14.384518     13.358650
  24       17.125024     16.463830
  25       17.589934     16.939118
  26       17.591884     16.941272
  27       17.868233     17.590757
  28       19.848075     19.171505
  29       20.151470     19.504637
  30       27.531580     26.402887
  31       31.467918     31.349621
  32       31.470639     31.352441
  33       31.568706     31.602615
  34       32.374238     32.164981
  35       32.771321     32.697753
  36       32.773299     32.699690
  37       33.484540     33.405326
  38       34.479528     34.525115
  39       35.528733     35.084524
  40       35.531717     35.087573
  41       35.668978     35.322260
  42       42.667916     38.925566
  43       42.695262     38.926760
  44       42.695288     38.926801
  45       44.206802     43.420252
  46       44.639462     43.903915
  47       44.640176     44.521823
  48       44.653276     44.522337
  49       45.673289     45.394670
  50       45.676647     45.398289
  51       45.788033     45.483772
  52       46.333381     46.292164
  53       46.438021     46.456043
  54       46.816945     46.563165
  55       46.819109     46.564932
  56       46.964781     46.720725
  57       47.199887     46.808537
  58       47.996174     47.879688
  59       47.997984     47.881287
  60       50.250997     50.113844
  61       50.253166     50.115831
  62       50.376951     50.205937
  63       51.171371     50.847859
  64       51.409134     51.208627
  65       51.920581     51.637242
  66       51.920860     51.637977
  67       54.286340     53.998886
  68       54.550862     54.253304
  69       56.842989     55.958867
  70       56.843763     55.959542
  71       57.623318     56.797338
  72       58.733811     57.083393
  73       59.613637     58.284127
  74       59.616581     58.669442
  75       60.579719     58.672500
  76       63.533610     62.469267
  77       63.599722     62.779007
  78       68.507568     67.948775
  79       69.588690     69.035675
  80       70.886146     69.434982
 
  0.5128205E-01  0.0000000E+00  0.5128205E-01  0.3125000E-02
   1       -3.668176     -3.714883
   2        3.852125      3.202356
   3        3.977943      3.435285
   4        3.977957      3.484284
   5        4.694894      3.484321
   6        4.725700      3.630564
   7        6.452781      4.793474
   8        6.512372      4.838124
   9        6.512394      4.838165
  10        7.579459      6.575170
  11        7.626393      6.605968
  12        7.626395      6.606150
  13        8.296499      6.955677
  14        8.390675      7.007493
  15        9.751576      7.019872
  16        9.752055      7.044737
  17       11.480676     11.075074
  18       11.882049     11.403753
  19       11.882486     11.403979
  20       12.497267     12.182403
  21       14.272717     13.298047
  22       14.273202     13.360360
  23       14.360757     13.360904
  24       16.926725     16.250849
  25       17.701430     17.038282
  26       17.703307     17.040361
  27       17.961337     17.684834
  28       19.849769     19.174453
  29       20.345890     19.715267
  30       27.604741     26.479324
  31       31.188297     31.050270
  32       31.191083     31.053158
  33       31.280060     31.309904
  34       32.377920     32.168885
  35       32.900512     32.830984
  36       32.902345     32.832766
  37       33.235429     33.126772
  38       34.805015     34.851028
  39       35.698419     35.269425
  40       35.701455     35.272533
  41       35.877746     35.559120
  42       42.632629     38.924880
  43       42.690741     38.927044
  44       42.690789     38.927089
  45       43.897714     43.091360
  46       44.128130     43.861763
  47       44.128646     44.010462
  48       44.581869     44.010839
  49       45.467398     45.180695
  50       45.470352     45.184018
  51       45.671687     45.382896
  52       46.435775     46.397928
  53       46.466741     46.452222
  54       46.922719     46.691089
  55       46.944543     46.692862
  56       46.946563     46.766423
  57       47.497990     47.006112
  58       48.492181     48.349855
  59       48.494241     48.351788
  60       50.155952     49.973322
  61       50.158147     50.045682
  62       50.189977     50.047717
  63       51.123679     50.800207
  64       51.465087     51.263579
  65       52.241446     51.955320
  66       52.241850     51.956106
  67       54.319145     54.033710
  68       54.757514     54.451890
  69       56.525499     55.644237
  70       56.526442     55.645085
  71       57.748617     56.929461
  72       58.587123     56.958635
  73       59.967264     58.435797
  74       59.970019     59.024099
  75       60.724401     59.026949
  76       63.636805     62.536656
  77       63.697942     62.882953
  78       67.972209     67.411143
  79       69.510464     68.971104
  80       70.909079     69.528074
 
  0.6410256E-01  0.0000000E+00  0.6410256E-01  0.3125000E-02
   1       -3.641372     -3.687727
   2        3.797000      3.136227
   3        3.987394      3.448059
   4        3.987407      3.495106
   5        4.708064      3.495142
   6        4.750873      3.672492
   7        6.419665      4.772157
   8        6.514370      4.842186
   9        6.514389      4.842230
  10        7.536334      6.543676
  11        7.595222      6.582922
  12        7.595240      6.583119
  13        8.295914      6.955163
  14        8.429862      7.008736
  15        9.739081      7.027535
  16        9.739704      7.047257
  17       11.391282     10.961441
  18       11.902610     11.354165
  19       11.902957     11.354286
  20       12.649565     12.332416
  21       14.208724     13.264471
  22       14.209365     13.369599
  23       14.332196     13.370323
  24       16.708578     16.019710
  25       17.837251     17.161051
  26       17.839049     17.163047
  27       18.078451     17.803278
  28       19.851949     19.178242
  29       20.560448     19.945508
  30       27.699346     26.578450
  31       30.894754     30.739747
  32       30.897584     30.742682
  33       30.976031     31.001441
  34       32.382588     32.173839
  35       32.967079     32.836797
  36       33.016082     32.946325
  37       33.017791     32.947979
  38       35.155501     35.201083
  39       35.897882     35.485495
  40       35.900956     35.488643
  41       36.093856     35.794737
  42       42.567894     38.923963
  43       42.683955     38.927439
  44       42.684039     38.927490
  45       43.590733     42.732188
  46       43.628096     43.504849
  47       43.628470     43.505103
  48       44.506337     43.815394
  49       45.263008     44.970583
  50       45.265711     44.973728
  51       45.535573     45.261831
  52       46.432929     46.447381
  53       46.622819     46.527166
  54       46.843527     46.693520
  55       47.030293     46.782037
  56       47.032392     46.784038
  57       47.811075     47.310631
  58       48.916887     48.725494
  59       48.919455     48.727960
  60       49.998130     49.726876
  61       50.183506     50.119438
  62       50.185939     50.121657
  63       51.066870     50.743238
  64       51.533636     51.330916
  65       52.580487     52.289669
  66       52.580926     52.290419
  67       54.361206     54.078340
  68       54.994620     54.678621
  69       56.198768     55.322951
  70       56.199811     55.323887
  71       57.899743     56.766332
  72       58.422004     57.149841
  73       60.341592     58.598369
  74       60.344219     59.398516
  75       60.894539     59.401224
  76       63.771398     62.611324
  77       63.801071     63.019103
  78       67.441008     66.870344
  79       69.407721     68.884924
  80       70.924742     69.637245
 
  0.7692308E-01  0.0000000E+00  0.7692308E-01  0.3125000E-02
   1       -3.608707     -3.654635
   2        3.733916      3.066961
   3        3.998902      3.463623
   4        3.998912      3.508281
   5        4.724088      3.508316
   6        4.777953      3.712869
   7        6.377987      4.745908
   8        6.516783      4.847153
   9        6.516797      4.847199
  10        7.493533      6.510928
  11        7.558402      6.555473
  12        7.558443      6.555686
  13        8.295206      6.954539
  14        8.469931      6.995148
  15        9.723753      7.047202
  16        9.724709      7.050159
  17       11.308180     10.850396
  18       11.921887     11.290973
  19       11.922128     11.290987
  20       12.805108     12.481879
  21       14.144715     13.226186
  22       14.145530     13.389124
  23       14.299957     13.390033
  24       16.482258     15.783593
  25       17.993709     17.304793
  26       17.995426     17.306700
  27       18.218014     17.944543
  28       19.854615     19.182868
  29       20.785010     20.184557
  30       27.815629     26.700728
  31       30.590777     30.420965
  32       30.593635     30.423931
  33       30.666019     30.686656
  34       32.388187     32.179794
  35       32.687192     32.540174
  36       33.122044     33.049643
  37       33.123651     33.051196
  38       35.520879     35.564977
  39       36.116641     35.720995
  40       36.119733     35.724154
  41       36.309303     36.023676
  42       42.446819     38.922796
  43       42.671676     38.927946
  44       42.671827     38.928003
  45       43.148216     42.355102
  46       43.148494     43.013110
  47       43.323745     43.013249
  48       44.432012     43.768821
  49       45.061481     44.763418
  50       45.064016     44.766458
  51       45.384298     45.124277
  52       46.429524     46.441576
  53       46.716168     46.578769
  54       46.797016     46.676763
  55       47.063121     46.824349
  56       47.065408     46.826685
  57       48.128897     47.623075
  58       49.209820     48.965430
  59       49.212733     48.968285
  60       49.821218     49.488785
  61       50.402423     50.382870
  62       50.404922     50.385109
  63       51.001215     50.677630
  64       51.615329     51.410608
  65       52.935472     52.639481
  66       52.935882     52.640120
  67       54.412489     54.132723
  68       55.253954     54.926639
  69       55.871620     55.004020
  70       55.872710     55.004970
  71       58.070182     56.598064
  72       58.245546     57.361312
  73       60.728596     58.768736
  74       60.731134     59.785065
  75       61.086661     59.787673
  76       63.887923     62.682521
  77       63.938187     63.188694
  78       66.936552     66.342251
  79       69.279834     68.777513
  80       70.973505     69.802507
 
  0.8974359E-01  0.0000000E+00  0.8974359E-01  0.3125000E-02
   1       -3.570251     -3.615681
   2        3.664179      2.994767
   3        4.012436      3.481950
   4        4.012444      3.523772
   5        4.742924      3.523806
   6        4.805938      3.751843
   7        6.327479      4.714674
   8        6.519581      4.853016
   9        6.519590      4.853066
  10        7.453355      6.478204
  11        7.516584      6.524003
  12        7.516651      6.524235
  13        8.294379      6.953811
  14        8.509330      6.979122
  15        9.705600      7.053344
  16        9.707085      7.065655
  17       11.231083     10.741438
  18       11.936381     11.213813
  19       11.936502     11.213899
  20       12.960868     12.626483
  21       14.086864     13.184373
  22       14.087863     13.421402
  23       14.265127     13.422489
  24       16.257247     15.553697
  25       18.167506     17.466950
  26       18.169145     17.468767
  27       18.378430     18.107015
  28       19.857764     19.188329
  29       21.012572     20.425115
  30       27.953710     26.846535
  31       30.278922     30.096153
  32       30.281795     30.099138
  33       30.355195     30.370730
  34       32.394656     32.186687
  35       32.400331     32.239562
  36       33.222171     33.145901
  37       33.223698     33.147377
  38       35.895005     35.936359
  39       36.343838     35.964282
  40       36.346917     35.967417
  41       36.519004     36.242213
  42       42.238633     38.921323
  43       42.597740     38.928532
  44       42.598048     38.928598
  45       42.750210     41.968140
  46       42.750473     42.541871
  47       43.134235     42.541889
  48       44.363013     43.725891
  49       44.863919     44.559451
  50       44.866330     44.562428
  51       45.221380     44.973433
  52       46.425570     46.412171
  53       46.533383     46.434988
  54       46.986183     46.811181
  55       47.037146     46.813860
  56       47.039638     46.844056
  57       48.445128     47.936442
  58       49.386800     49.110422
  59       49.389671     49.113432
  60       49.673395     49.276948
  61       50.799209     50.604094
  62       50.801432     50.796408
  63       50.927444     50.798481
  64       51.710546     51.502787
  65       53.306460     53.005303
  66       53.306780     53.005736
  67       54.472976     54.196811
  68       55.529913     54.694058
  69       55.549577     54.694929
  70       55.550664     55.191720
  71       58.062987     56.427384
  72       58.253612     57.584054
  73       61.124095     58.944529
  74       61.126568     60.179769
  75       61.298300     60.182306
  76       63.925055     62.733690
  77       64.138042     63.392943
  78       66.491160     65.846063
  79       69.124909     68.645799
  80       71.001942     69.920135
 
  0.1025641E+00  0.0000000E+00  0.1025641E+00  0.3125000E-02
   1       -3.526069     -3.570932
   2        3.588885      2.919898
   3        4.027959      3.503005
   4        4.027963      3.541537
   5        4.764518      3.541570
   6        4.834054      3.789542
   7        6.268162      4.678450
   8        6.522731      4.859769
   9        6.522734      4.859823
  10        7.417355      6.446500
  11        7.470456      6.488941
  12        7.470551      6.489193
  13        8.293438      6.952983
  14        8.547031      6.960674
  15        9.684639      7.056717
  16        9.686863      7.082365
  17       11.159493     10.633805
  18       11.942196     11.123112
  19       11.942202     11.123285
  20       13.112622     12.759921
  21       14.041198     13.140135
  22       14.042382     13.468019
  23       14.228681     13.469269
  24       16.042292     15.341192
  25       18.355875     17.645187
  26       18.357441     17.646916
  27       18.558142     18.289104
  28       19.861397     19.194620
  29       21.238306     20.662219
  30       28.113399     27.016025
  31       29.961122     29.767005
  32       29.963999     29.770000
  33       30.046607     30.056715
  34       32.109656     31.936790
  35       32.401914     32.194444
  36       33.319629     33.238950
  37       33.321092     33.240368
  38       36.273551     36.203281
  39       36.567726     36.206350
  40       36.570753     36.310626
  41       36.719047     36.446917
  42       41.946846     38.919554
  43       42.222877     38.929111
  44       42.223074     38.929186
  45       42.680786     41.577705
  46       42.680832     42.098692
  47       43.023883     42.098816
  48       44.302685     43.690256
  49       44.671169     44.359002
  50       44.673481     44.361944
  51       45.049316     44.811845
  52       46.293550     46.188271
  53       46.421150     46.427352
  54       46.954892     46.743443
  55       46.957548     46.746402
  56       47.188148     47.026840
  57       48.755531     48.246248
  58       49.526874     49.103616
  59       49.529631     49.229882
  60       49.562039     49.232965
  61       50.846494     50.523238
  62       51.287313     51.282700
  63       51.289270     51.284614
  64       51.819603     51.607623
  65       53.693273     53.385350
  66       53.693422     53.385382
  67       54.542266     54.270189
  68       55.237728     54.401811
  69       55.238739     54.402403
  70       55.819440     55.471771
  71       57.878302     56.256405
  72       58.444210     57.810364
  73       61.525488     59.123222
  74       61.527208     60.580161
  75       61.527914     60.582645
  76       63.864072     62.738987
  77       64.371419     63.632629
  78       66.151674     65.409806
  79       68.942497     68.490450
  80       71.062047     70.364212
 
  0.1153846E+00  0.0000000E+00  0.1153846E+00  0.3125000E-02
   1       -3.476231     -3.520463
   2        3.508971      2.842659
   3        4.045435      3.526748
   4        4.045436      3.561532
   5        4.788811      3.561564
   6        4.861677      3.826053
   7        6.200407      4.637297
   8        6.526187      4.867408
   9        6.526192      4.867467
  10        7.386430      6.416587
  11        7.420726      6.450744
  12        7.420852      6.451018
  13        8.292392      6.939827
  14        8.582367      6.952061
  15        9.660886      7.060184
  16        9.664085      7.097002
  17       11.092800     10.526572
  18       11.935395     11.019832
  19       11.935526     11.020076
  20       13.254271     12.872997
  21       14.013198     13.094462
  22       14.014560     13.529692
  23       14.191463     13.531084
  24       15.846766     15.158889
  25       18.556539     17.837444
  26       18.558037     17.839089
  27       18.755684     18.489291
  28       19.865514     19.201735
  29       21.458919     20.892540
  30       28.294101     27.209035
  31       29.638857     29.434806
  32       29.641731     29.437803
  33       29.742179     29.746537
  34       31.817720     31.633334
  35       32.409871     32.202978
  36       33.416842     33.331590
  37       33.418255     33.332964
  38       36.653082     36.424538
  39       36.774793     36.427489
  40       36.777715     36.633898
  41       36.905803     36.684004
  42       41.605810     38.917614
  43       41.832551     38.929460
  44       41.832896     38.929544
  45       42.663711     41.189771
  46       42.663857     41.693890
  47       42.963091     41.694194
  48       44.254040     43.665542
  49       44.484107     44.162528
  50       44.486330     44.165451
  51       44.869629     44.641368
  52       46.001459     45.907616
  53       46.416229     46.419034
  54       46.825746     46.628987
  55       46.828509     46.632137
  56       47.401458     47.223406
  57       49.056338     48.549015
  58       49.487547     48.973175
  59       49.672764     49.355920
  60       49.675437     49.359030
  61       50.759923     50.435942
  62       51.808571     51.725386
  63       51.810369     51.792791
  64       51.942888     51.794576
  65       54.094124     53.752442
  66       54.094344     53.753706
  67       54.620390     54.162681
  68       54.944251     54.163295
  69       54.944988     54.352855
  70       56.120718     55.765416
  71       57.694657     56.086989
  72       58.637134     58.034309
  73       61.770174     59.301391
  74       61.931121     60.984645
  75       61.933512     60.987090
  76       63.661717     62.662801
  77       64.638215     63.907846
  78       65.960884     65.071925
  79       68.731680     68.309097
  80       71.111938     70.440708
 
  0.1282051E+00  0.0000000E+00  0.1282051E+00  0.3125000E-02
   1       -3.420824     -3.464367
   2        3.425247      2.763394
   3        4.064810      3.553136
   4        4.064813      3.583698
   5        4.815733      3.583728
   6        4.888283      3.861408
   7        6.124914      4.591349
   8        6.529885      4.875913
   9        6.529900      4.875978
  10        7.360920      6.389053
  11        7.368096      6.409884
  12        7.368254      6.410181
  13        8.291245      6.916605
  14        8.614915      6.951052
  15        9.634343      7.063645
  16        9.638800      7.109362
  17       11.030312     10.418685
  18       11.912936     10.905318
  19       11.913177     10.905614
  20       13.377127     12.953408
  21       14.007263     13.048198
  22       14.008785     13.606431
  23       14.154161     13.607943
  24       15.681798     15.021901
  25       18.767661     18.041941
  26       18.769097     18.043507
  27       18.969703     18.706154
  28       19.870112     19.209668
  29       21.672216     21.113909
  30       28.494479     27.424915
  31       29.313268     29.100537
  32       29.316131     29.103529