    4    4    1    2
  0.1112960E+02  0.3978116E-09  0.3978116E-09  0.3978318E-09  0.5000000E-15
  1.000000000000000E-004
  CAR 
 unknown system                          
   29  320   80
 
  0.0000000E+00  0.0000000E+00  0.0000000E+00  0.3125000E-02
   1       -3.715960     -3.763301
   2        3.961053      3.412240
   3        3.961053      3.412578
   4        3.961072      3.464942
   5        4.671116      3.464942
   6        4.671438      3.464981
   7        6.508785      4.830915
   8        6.508812      4.830915
   9        6.508813      4.830952
  10        7.684294      6.648312
  11        7.684294      6.648468
  12        7.684333      6.648468
  13        8.297199      6.956189
  14        8.297678      6.956752
  15        9.773676      7.039640
  16        9.774208      7.039996
  17       11.835009     11.484969
  18       11.835009     11.484969
  19       11.835604     11.485424
  20       12.023792     11.698223
  21       14.417172     13.363428
  22       14.417333     13.363575
  23       14.417334     13.363576
  24       17.437394     16.806197
  25       17.437396     16.806198
  26       17.439462     16.808461
  27       17.745649     17.467044
  28       19.844830     19.166603
  29       19.846256     19.168085
  30       27.438144     26.305562
  31       32.084374     32.125743
  32       32.084375     32.125743
  33       32.086747     32.128116
  34       32.366971     32.157345
  35       32.369437     32.159899
  36       32.369438     32.159899
  37       33.915362     33.957973
  38       33.916385     33.959064
  39       35.288916     34.821715
  40       35.288918     34.821716
  41       35.291793     34.824629
  42       42.700517     38.926422
  43       42.700517     38.926422
  44       42.700519     38.926458
  45       44.767084     43.965086
  46       44.770506     43.968433
  47       45.954921     45.622022
  48       45.957078     45.624582
  49       45.957078     45.624582
  50       46.134307     46.143886
  51       46.138203     46.147688
  52       46.138203     46.147689
  53       46.437576     46.232194
  54       46.440951     46.232194
  55       46.440953     46.232915
  56       46.666423     46.457636
  57       46.666424     46.461030
  58       46.666989     46.461031
  59       46.986932     46.841800
  60       50.682027     50.576522
  61       50.682027     50.576523
  62       50.685739     50.580417
  63       51.252334     50.918931
  64       51.252335     50.918932
  65       51.253643     50.920089
  66       51.318661     51.129172
  67       54.240381     53.950221
  68       54.245308     53.955259
  69       57.451289     56.571813
  70       57.451290     56.571813
  71       57.451324     56.572060
  72       58.959718     57.367226
  73       58.959718     58.006094
  74       58.963490     58.006095
  75       60.365612     58.010112
  76       63.402976     62.371262
  77       63.451301     62.648059
  78       69.683448     69.113462
  79       69.689462     69.122465
  80       70.829748     69.349120
 
  0.1282051E-01  0.0000000E+00  0.0000000E+00  0.3125000E-02
   1       -3.713725     -3.761036
   2        3.958359      3.397243
   3        3.960431      3.397520
   4        3.960444      3.462769
   5        4.673141      3.481416
   6        4.673463      3.481503
   7        6.508052      4.830500
   8        6.508078      4.830594
   9        6.508087      4.830622
  10        7.678953      6.645140
  11        7.681119      6.645867
  12        7.681146      6.645961
  13        8.299894      6.957736
  14        8.300373      6.958295
  15        9.772640      7.039294
  16        9.773172      7.039649
  17       11.789839     11.430700
  18       11.836760     11.483821
  19       11.837158     11.484124
  20       12.076440     11.751532
  21       14.401732     13.355871
  22       14.415808     13.364892
  23       14.415909     13.364983
  24       17.429697     16.796423
  25       17.431015     16.797859
  26       17.449830     16.816017
  27       17.756262     17.477585
  28       19.859522     19.183086
  29       19.860953     19.184575
  30       27.445900     26.313626
  31       31.963810     31.924999
  32       31.965452     31.926713
  33       32.087499     32.127588
  34       32.339798     32.128865
  35       32.455234     32.324647
  36       32.456788     32.326203
  37       33.922419     33.952362
  38       33.923363     33.953276
  39       35.311138     34.846822
  40       35.320128     34.866505
  41       35.322125     34.868348
  42       42.699028     38.926417
  43       42.699033     38.926420
  44       42.700350     38.926454
  45       44.730012     43.934148
  46       44.733428     43.937487
  47       45.751366     45.506305
  48       45.752477     45.506765
  49       45.897430     45.600552
  50       45.932404     45.910513
  51       46.176475     46.017816
  52       46.176597     46.019290
  53       46.402619     46.231045
  54       46.403430     46.249940
  55       46.665231     46.250225
  56       46.683923     46.700337
  57       46.904983     46.715568
  58       46.906975     46.718538
  59       46.986884     46.840067
  60       50.585045     50.446443
  61       50.640280     50.521580
  62       50.642749     50.524055
  63       51.289043     50.967571
  64       51.289961     50.968493
  65       51.316493     51.056635
  66       51.370117     51.138912
  67       54.256348     53.966116
  68       54.261243     53.971109
  69       57.359266     56.477563
  70       57.434573     56.556176
  71       57.434671     56.556430
  72       58.988662     57.343496
  73       58.991048     58.035844
  74       59.029603     58.038426
  75       60.385583     58.124696
  76       63.413768     62.379961
  77       63.464710     62.658845
  78       69.592322     69.026590
  79       69.599972     69.035927
  80       70.860581     69.358277
 
  0.2564103E-01  0.0000000E+00  0.0000000E+00  0.3125000E-02
   1       -3.706999     -3.754220
   2        3.950260      3.370858
   3        3.958596      3.371091
   4        3.958611      3.456221
   5        4.679180      3.512227
   6        4.679500      3.512357
   7        6.505753      4.829183
   8        6.505902      4.829636
   9        6.505918      4.829662
  10        7.663096      6.635427
  11        7.671782      6.638507
  12        7.671808      6.638599
  13        8.307787      6.962208
  14        8.308265      6.962759
  15        9.769560      7.038269
  16        9.770091      7.038623
  17       11.709293     11.328182
  18       11.841981     11.480409
  19       11.842377     11.480708
  20       12.178471     11.849935
  21       14.356602     13.334419
  22       14.411509     13.369022
  23       14.411594     13.369095
  24       17.407368     16.768130
  25       17.408693     16.769580
  26       17.480734     16.841179
  27       17.790985     17.510255
  28       19.902883     19.231577
  29       19.904331     19.233084
  30       27.469141     26.337785
  31       31.738648     31.678770
  32       31.740353     31.680540
  33       32.094472     32.036644
  34       32.255992     32.135857
  35       32.583650     32.471110
  36       32.585115     32.472578
  37       33.942517     33.940305
  38       33.943243     33.940809
  39       35.372913     34.916092
  40       35.412063     34.992738
  41       35.413686     34.994081
  42       42.694277     38.926384
  43       42.694298     38.926416
  44       42.699823     38.926447
  45       44.609978     43.839023
  46       44.613392     43.842345
  47       45.469979     45.262261
  48       45.471996     45.263274
  49       45.556150     45.531738
  50       45.861570     45.570577
  51       46.012188     45.800043
  52       46.012984     45.800097
  53       46.590596     46.227221
  54       46.590897     46.419847
  55       46.660269     46.420627
  56       46.986658     46.834617
  57       47.039052     47.054126
  58       47.283917     47.098318
  59       47.286774     47.101825
  60       50.393153     50.233618
  61       50.537256     50.402736
  62       50.539644     50.405074
  63       51.337319     51.068396
  64       51.377662     51.069444
  65       51.378642     51.145505
  66       51.591910     51.309670
  67       54.303331     54.012373
  68       54.308132     54.017233
  69       57.124235     56.233662
  70       57.389234     56.514758
  71       57.389536     56.515255
  72       59.071122     57.322050
  73       59.073428     58.120361
  74       59.193500     58.122824
  75       60.446010     58.387467
  76       63.446111     62.406104
  77       63.505030     62.691244
  78       69.372731     68.813320
  79       69.378779     68.817803
  80       70.832053     69.389032
 
  0.3846154E-01  0.0000000E+00  0.0000000E+00  0.3125000E-02
   1       -3.695789     -3.742861
   2        3.936766      3.343469
   3        3.955641      3.343681
   4        3.955659      3.445340
   5        4.689122      3.546969
   6        4.689439      3.547119
   7        6.501659      4.826834
   8        6.502303      4.828057
   9        6.502319      4.828083
  10        7.637339      6.619505
  11        7.656797      6.626723
  12        7.656822      6.626806
  13        8.320356      6.969154
  14        8.320834      6.969693
  15        9.764516      7.036614
  16        9.765046      7.036967
  17       11.627931     11.215892
  18       11.850578     11.474829
  19       11.850971     11.475122
  20       12.294394     11.952619
  21       14.286083     13.303668
  22       14.404197     13.375532
  23       14.404256     13.375575
  24       17.372514     16.724124
  25       17.373796     16.725528
  26       17.520371     16.877734
  27       17.856965     17.567826
  28       19.972958     19.309489
  29       19.974431     19.311026
  30       27.507792     26.377944
  31       31.478075     31.407772
  32       31.479807     31.409568
  33       32.106104     31.894791
  34       32.123905     32.147512
  35       32.691181     32.585119
  36       32.692574     32.586518
  37       33.973051     33.930489
  38       33.973465     33.930537
  39       35.468020     35.021659
  40       35.559665     35.182913
  41       35.560919     35.183763
  42       42.685297     38.926352
  43       42.685350     38.926451
  44       42.698952     38.926480
  45       44.393618     43.675290
  46       44.397052     43.678603
  47       45.209786     44.996665
  48       45.224824     44.998322
  49       45.226731     45.225068
  50       45.746442     45.419305
  51       45.853253     45.618995
  52       45.854140     45.619679
  53       46.649979     46.219746
  54       46.800987     46.611413
  55       46.801612     46.612371
  56       46.985875     46.824762
  57       47.408338     47.422608
  58       47.697798     47.508921
  59       47.701040     47.512643
  60       50.189545     50.022725
  61       50.404211     50.261707
  62       50.406596     50.264028
  63       51.366374     51.174952
  64       51.489057     51.182275
  65       51.490048     51.183342
  66       51.849903     51.567895
  67       54.378605     54.084749
  68       54.383249     54.089386
  69       56.810225     55.909280
  70       57.326776     56.460762
  71       57.327365     56.461608
  72       59.196964     57.328954
  73       59.199111     58.248828
  74       59.388265     58.251117
  75       60.547235     58.700619
  76       63.499479     62.449792
  77       63.572802     62.745351
  78       69.092653     68.535847
  79       69.098812     68.542953
  80       70.755876     69.373296
 
  0.5128205E-01  0.0000000E+00  0.0000000E+00  0.3125000E-02
   1       -3.680107     -3.726969
   2        3.917888      3.316871
   3        3.951710      3.317070
   4        3.951732      3.430170
   5        4.702800      3.583809
   6        4.703113      3.583971
   7        6.495397      4.823237
   8        6.497304      4.825886
   9        6.497318      4.825912
  10        7.602678      6.597788
  11        7.636885      6.611073
  12        7.636907      6.611144
  13        8.336862      6.977942
  14        8.337338      6.978467
  15        9.757640      7.034429
  16        9.758168      7.034779
  17       11.552431     11.101501
  18       11.862395     11.467232
  19       11.862785     11.467519
  20       12.415439     12.047376
  21       14.196338     13.271038
  22       14.393664     13.383879
  23       14.393684     13.383881
  24       17.328128     16.668302
  25       17.329346     16.669639
  26       17.558456     16.919348
  27       17.959859     17.653609
  28       20.067007     19.413300
  29       20.068511     19.414872
  30       27.561730     26.433945
  31       31.196714     31.118016
  32       31.198449     31.119814
  33       31.951979     31.712267
  34       32.122388     32.163828
  35       32.773331     32.671463
  36       32.774674     32.672820
  37       34.011193     33.928346
  38       34.011261     33.928704
  39       35.587971     35.153199
  40       35.755043     35.419678
  41       35.755918     35.420101
  42       42.669811     38.926285
  43       42.669928     38.926584
  44       42.697675     38.926613
  45       44.095391     43.443313
  46       44.098818     43.446632
  47       44.865762     44.750310
  48       45.025844     44.752073
  49       45.027526     44.881443
  50       45.590177     45.265904
  51       45.720111     45.465719
  52       45.720794     45.466563
  53       46.633380     46.208217
  54       46.983622     46.807737
  55       47.009976     46.808691
  56       47.010696     46.809478
  57       47.784768     47.798380
  58       48.126319     47.932490
  59       48.129731     47.936297
  60       49.996813     49.826997
  61       50.258534     50.112695
  62       50.260970     50.115058
  63       51.406281     51.213606
  64       51.609441     51.299126
  65       51.610396     51.300149
  66       52.117192     51.829889
  67       54.477685     54.176282
  68       54.482109     54.180604
  69       56.456535     55.549009
  70       57.260400     56.409685
  71       57.261328     56.410956
  72       59.355445     57.358013
  73       59.357430     58.410014
  74       59.577542     58.412133
  75       60.686513     59.025975
  76       63.572495     62.511124
  77       63.669057     62.821299
  78       68.784841     68.231998
  79       68.790987     68.238491
  80       70.479240     69.403935
 
  0.6410256E-01  0.0000000E+00  0.0000000E+00  0.3125000E-02
   1       -3.659978     -3.706570
   2        3.893625      3.291530
   3        3.946978      3.291719
   4        3.947006      3.410756
   5        4.719992      3.622225
   6        4.720300      3.622395
   7        6.486434      4.818106
   8        6.490941      4.823160
   9        6.490954      4.823187
  10        7.560474      6.570847
  11        7.612840      6.592134
  12        7.612858      6.592195
  13        8.356484      6.987826
  14        8.356960      6.988332
  15        9.749104      7.031922
  16        9.749630      7.032264
  17       11.484420     10.986949
  18       11.877224     11.457816
  19       11.877608     11.458094
  20       12.536487     12.125396
  21       14.095004     13.246631
  22       14.379599     13.393261
  23       14.379626     13.393314
  24       17.277585     16.604946
  25       17.278725     16.606201
  26       17.591362     16.960514
  27       18.098443     17.769714
  28       20.181959     19.539219
  29       20.183498     19.540829
  30       27.630770     26.505560
  31       30.901464     30.814648
  32       30.903184     30.816431
  33       31.748343     31.498395
  34       32.143325     32.184806
  35       32.833861     32.735829
  36       32.835177     32.737166
  37       34.054600     33.936430
  38       34.054866     33.937125
  39       35.724465     35.301217
  40       35.988731     35.688942
  41       35.989257     35.689028
  42       42.642477     38.926171
  43       42.642730     38.926931
  44       42.695892     38.926962
  45       43.755917     43.153714
  46       43.759230     43.157044
  47       44.525225     44.530932
  48       44.851223     44.532709
  49       44.852456     44.541490
  50       45.395894     45.074404
  51       45.608948     45.332499
  52       45.609309     45.333279
  53       46.610455     46.192548
  54       46.978442     46.787535
  55       47.215662     47.003425
  56       47.216337     47.004268
  57       48.166830     48.179832
  58       48.559127     48.361232
  59       48.562575     48.365043
  60       49.822094     49.650298
  61       50.110486     49.963047
  62       50.113026     49.965497
  63       51.456842     51.262039
  64       51.734191     51.417400
  65       51.735077     51.418336
  66       52.383457     52.087780
  67       54.594381     54.277496
  68       54.598522     54.281412
  69       56.083521     55.174536
  70       57.202455     56.376691
  71       57.203767     56.378455
  72       59.537941     57.403564
  73       59.539781     58.595089
  74       59.749551     58.597061
  75       60.855841     59.347544
  76       63.663283     62.590106
  77       63.794285     62.919099
  78       68.462530     67.913556
  79       68.468635     67.919940
  80       70.376597     69.457070
 
  0.7692308E-01  0.0000000E+00  0.0000000E+00  0.3125000E-02
   1       -3.635422     -3.681683
   2        3.863975      3.267619
   3        3.941647      3.267800
   4        3.941680      3.387137
   5        4.740447      3.661975
   6        4.740751      3.662151
   7        6.474092      4.811106
   8        6.483258      4.819926
   9        6.483269      4.819955
  10        7.512425      6.539399
  11        7.585425      6.570422
  12        7.585438      6.570476
  13        8.378425      6.997821
  14        8.378901      6.998290
  15        9.739121      7.029626
  16        9.739645      7.029939
  17       11.424165     10.872672
  18       11.894815     11.446816
  19       11.895195     11.447084
  20       12.651521     12.177855
  21       13.991458     13.242035
  22       14.361661     13.402781
  23       14.361746     13.402899
  24       17.224226     16.538220
  25       17.225277     16.539381
  26       17.620420     16.998095
  27       18.266929     17.915893
  28       20.314909     19.683773
  29       20.316483     19.685423
  30       27.714687     26.592506
  31       30.596857     30.501804
  32       30.598549     30.503560
  33       31.519860     31.260621
  34       32.168917     32.210449
  35       32.877767     32.783502
  36       32.879072     32.784837
  37       34.102426     33.954949
  38       34.102988     33.955914
  39       35.870453     35.458082
  40       36.251104     35.979463
  41       36.251337     35.979627
  42       42.589562     38.926038
  43       42.590141     38.927692
  44       42.693549     38.927726
  45       43.417254     42.824089
  46       43.420229     42.827413
  47       44.188795     44.205195
  48       44.683562     44.332872
  49       44.684358     44.334164
  50       45.167193     44.848264
  51       45.513820     45.214279
  52       45.513855     45.214900
  53       46.582196     46.173106
  54       46.968541     46.757582
  55       47.416571     47.195030
  56       47.417122     47.195691
  57       48.554044     48.566432
  58       48.985127     48.787116
  59       48.988451     48.790821
  60       49.667904     49.493905
  61       49.971933     49.821320
  62       49.974687     49.823932
  63       51.517585     51.319619
  64       51.862533     51.537985
  65       51.863318     51.538795
  66       52.642505     52.336743
  67       54.720938     54.377099
  68       54.724732     54.380531
  69       55.703650     54.798230
  70       57.164426     56.376302
  71       57.166168     56.378621
  72       59.738261     57.462790
  73       59.739982     58.797845
  74       59.906024     58.799696
  75       61.043921     59.657421
  76       63.770296     62.686554
  77       63.947326     63.038657
  78       68.131698     67.586538
  79       68.137752     67.592947
  80       70.286159     69.460950
 
  0.8974359E-01  0.0000000E+00  0.0000000E+00  0.3125000E-02
   1       -3.606487     -3.652355
   2        3.828905      3.245211
   3        3.935916      3.245386
   4        3.935955      3.359319
   5        4.763903      3.702900
   6        4.764201      3.703080
   7        6.457574      4.801877
   8        6.474311      4.816243
   9        6.474320      4.816273
  10        7.460491      6.504289
  11        7.555316      6.546373
  12        7.555322      6.546420
  13        8.401972      7.005995
  14        8.402449      7.006333
  15        9.727934      7.029183
  16        9.728455      7.029371
  17       11.371325     10.758465
  18       11.914879     11.434485
  19       11.915253     11.434744
  20       12.751290     12.198057
  21       13.898078     13.266961
  22       14.339499     13.411348
  23       14.339651     13.411542
  24       17.171123     16.471919
  25       17.172076     16.472975
  26       17.647789     17.031346
  27       18.459391     18.089791
  28       20.463150     19.843889
  29       20.464760     19.845578
  30       27.813160     26.694407
  31       30.286133     30.182661
  32       30.287790     30.184381
  33       31.271951     31.004564
  34       32.199156     32.240750
  35       32.909428     32.818781
  36       32.910732     32.820124
  37       34.154314     33.983193
  38       34.155128     33.984373
  39       36.020205     35.617879
  40       36.533221     36.282316
  41       36.533224     36.282655
  42       42.476287     38.925884
  43       42.477626     38.929213
  44       42.690464     38.929249
  45       43.130123     42.471754
  46       43.132299     42.475045
  47       43.856700     43.873414
  48       44.516899     44.147377
  49       44.517323     44.148387
  50       44.908138     44.591379
  51       45.428527     45.106794
  52       45.428764     45.107233
  53       46.549773     46.150262
  54       46.952051     46.718196
  55       47.610394     47.378998
  56       47.610763     47.379421
  57       48.946105     48.957890
  58       49.364438     49.184294
  59       49.367156     49.187511
  60       49.534417     49.357569
  61       49.883877     49.714698
  62       49.887271     49.717806
  63       51.587845     51.385247
  64       51.995300     51.662490
  65       51.995956     51.663140
  66       52.887540     52.570734
  67       54.848178     54.429778
  68       54.851568     54.463505
  69       55.326765     54.466419
  70       57.157288     56.421490
  71       57.159509     56.424394
  72       59.952165     57.533986
  73       59.953787     59.014029
  74       60.052954     59.015784
  75       61.240316     59.951131
  76       63.892269     62.800042
  77       64.124722     63.179469
  78       67.795350     67.254469
  79       67.801320     67.260794
  80       70.195336     69.474965
 
  0.1025641E+00  0.0000000E+00  0.0000000E+00  0.3125000E-02
   1       -3.573213     -3.618628
   2        3.788389      3.224340
   3        3.929984      3.224510
   4        3.930030      3.327296
   5        4.790087      3.744859
   6        4.790378      3.745041
   7        6.436031      4.790077
   8        6.464164      4.812182
   9        6.464171      4.812214
  10        7.406807      6.466466
  11        7.523087      6.520332
  12        7.523089      6.520376
  13        8.426504      7.008963
  14        8.426982      7.009030
  15        9.715801      7.033659
  16        9.716318      7.033738
  17       11.325201     10.643822
  18       11.937104     11.421090
  19       11.937470     11.421339
  20       12.821529     12.185390
  21       13.831879     13.324943
  22       14.312739     13.417750
  23       14.312966     13.418031
  24       17.120975     16.409404
  25       17.121824     16.410347
  26       17.674972     17.060932
  27       18.671255     18.288045
  28       20.624444     20.017089
  29       20.626089     20.018817
  30       27.925807     26.810824
  31       29.971706     29.859643
  32       29.973322     29.861323
  33       31.008775     30.734379
  34       32.234046     32.275713
  35       32.932225     32.844967
  36       32.933533     32.846322
  37       34.210193     34.020243
  38       34.211215     34.021596
  39       36.169230     35.776122
  40       36.826603     36.589315
  41       36.826763     36.589759
  42       42.257114     38.925715
  43       42.259436     38.932054
  44       42.686342     38.932092
  45       42.949321     42.110409
  46       42.950447     42.113630
  47       43.529058     43.546043
  48       44.350751     43.969397
  49       44.350879     43.970145
  50       44.623237     44.307877
  51       45.348798     45.006622
  52       45.349237     45.006895
  53       46.514520     46.124570
  54       46.926979     46.667792
  55       47.794054     47.551230
  56       47.794192     47.551362
  57       49.342937     49.240028
  58       49.420425     49.354059
  59       49.505591     49.382259
  60       49.507493     49.384228
  61       50.039506     49.815856
  62       50.043756     49.820171
  63       51.666747     51.457232
  64       52.134009     51.792704
  65       52.134514     51.793158
  66       53.110265     52.781140
  67       54.963944     54.081428
  68       54.966427     54.528087
  69       54.969413     54.530500
  70       57.191638     56.521595
  71       57.194371     56.525057
  72       60.176305     57.615826
  73       60.177843     59.240412
  74       60.195957     59.242094
  75       61.438568     60.226541
  76       64.028056     62.929860
  77       64.320965     63.340338
  78       67.455250     66.919162
  79       67.461114     66.925394
  80       70.122464     69.572677
 
  0.1153846E+00  0.0000000E+00  0.0000000E+00  0.3125000E-02
   1       -3.535645     -3.580542
   2        3.742363      3.205019
   3        3.924034      3.205184
   4        3.924087      3.290999
   5        4.818730      3.787717
   6        4.819016      3.787900
   7        6.408662      4.775408
   8        6.452894      4.807826
   9        6.452898      4.807860
  10        7.353530      6.426948
  11        7.489201      6.492579
  12        7.489212      6.492621
  13        8.451496      7.006790
  14        8.451976      7.006888
  15        9.702996      7.042442
  16        9.703509      7.042685
  17       11.284812     10.528047
  18       11.961162     11.406905
  19       11.961522     11.407145
  20       12.845180     12.145883
  21       13.812256     13.412524
  22       14.281034     13.420709
  23       14.281344     13.421111
  24       17.076060     16.353604
  25       17.076801     16.354427
  26       17.702832     17.087997
  27       18.899288     18.507283
  28       20.796889     20.201350
  29       20.798578     20.203121
  30       28.052134     26.941216
  31       29.655414     29.534603
  32       29.656985     29.536239
  33       30.733607     30.453234
  34       32.273582     32.315334
  35       32.948596     32.864481
  36       32.949912     32.865850
  37       34.270027     34.065135
  38       34.271225     34.066628
  39       36.313865     35.929246
  40       37.123332     36.891866
  41       37.123584     36.892336
  42       41.952941     38.925515
  43       41.955757     38.937202
  44       42.680627     38.937239
  45       42.861018     41.751156
  46       42.861554     41.754261
  47       43.205933     43.223155
  48       44.186195     43.796425
  49       44.186293     43.796954
  50       44.317604     44.002253
  51       45.271308     44.910792
  52       45.271895     44.910925
  53       46.477619     46.096502
  54       46.891539     46.604891
  55       47.962889     47.706132
  56       47.963055     47.706368
  57       49.324184     49.139646
  58       49.429830     49.321981
  59       49.431792     49.323932
  60       49.744483     49.755030
  61       50.420350     50.187041
  62       50.424494     50.191373
  63       51.753020     51.532764
  64       52.280625     51.930501
  65       52.280959     51.930733
  66       53.293691     52.944423
  67       54.635089     53.781108
  68       55.067272     54.568047
  69       55.069789     54.570062
  70       57.276140     56.679622
  71       57.279383     56.683551
  72       60.338480     57.706953
  73       60.408469     59.474818
  74       60.409969     59.476457
  75       61.636035     60.483057
  76       64.176626     63.075072
  77       64.529001     63.519381
  78       67.112505     66.581827
  79       67.118243     66.587953
  80       70.063569     69.468741
 
  0.1282051E+00  0.0000000E+00  0.0000000E+00  0.3125000E-02
   1       -3.493825     -3.538142
   2        3.690748      3.187245
   3        3.918228      3.187405
   4        3.918288      3.250314
   5        4.849575      3.831333
   6        4.849854      3.831515
   7        6.374866      4.757664
   8        6.440587      4.803274
   9        6.440589      4.803310
  10        7.302643      6.386769
  11        7.454045      6.463336
  12        7.454066      6.463379
  13        8.476517      7.002472
  14        8.476999      7.002633
  15        9.689805      7.052730
  16        9.690313      7.053036
  17       11.248945     10.410393
  18       11.986713     11.392182
  19       11.987062     11.392412
  20       12.813976     12.088513
  21       13.849521     13.418957
  22       14.244105     13.419428
  23       14.244501     13.523007
  24       17.038263     16.307029
  25       17.038890     16.307725
  26       17.731828     17.113672
  27       19.141188     18.744580
  28       20.978924     20.395051
  29       20.980634     20.396848
  30       28.191449     27.084896
  31       29.338694     29.208979
  32       29.340219     29.210569