       N       E                     dE             d eps       ncg     rms          rms(c)
DAV:   1     0.169595700858E+03    0.16960E+03   -0.12398E+04  1480   0.153E+03
DAV:   2    -0.229823029356E+02   -0.19258E+03   -0.18112E+03  1472   0.297E+02
DAV:   3    -0.315351106152E+02   -0.85528E+01   -0.81457E+01  1780   0.842E+01
DAV:   4    -0.317259570641E+02   -0.19085E+00   -0.19054E+00  1879   0.114E+01
DAV:   5    -0.317312759696E+02   -0.53189E-02   -0.53144E-02  1971   0.196E+00    0.200E+01
DAV:   6    -0.344549990558E+02   -0.27237E+01   -0.32968E+01  1767   0.975E+01    0.239E+01
DAV:   7    -0.349602029651E+02   -0.50520E+00   -0.57357E+01  1743   0.937E+01    0.266E+01
DAV:   8    -0.300999770230E+02    0.48602E+01   -0.16041E+01  1968   0.725E+01    0.534E+00
DAV:   9    -0.301722802847E+02   -0.72303E-01   -0.81740E-01  1977   0.108E+01    0.533E+00
DAV:  10    -0.303632648641E+02   -0.19098E+00   -0.18700E-01  1968   0.723E+00    0.157E+00
DAV:  11    -0.303408694788E+02    0.22395E-01   -0.18420E-01  2288   0.512E+00    0.254E+00
DAV:  12    -0.303871517167E+02   -0.46282E-01   -0.44755E-02  2034   0.326E+00    0.202E-01
DAV:  13    -0.303867878361E+02    0.36388E-03   -0.38183E-03  1964   0.582E-01    0.383E-01
DAV:  14    -0.303877266042E+02   -0.93877E-03   -0.65829E-04  2017   0.375E-01    0.995E-02
DAV:  15    -0.303878445651E+02   -0.11796E-03   -0.84483E-05  2194   0.107E-01    0.236E-02
DAV:  16    -0.303878501247E+02   -0.55596E-05   -0.77783E-06  1971   0.283E-02    0.982E-03
DAV:  17    -0.303878591448E+02   -0.90201E-05   -0.21279E-06  2184   0.210E-02    0.171E-03
DAV:  18    -0.303878644844E+02   -0.53395E-05   -0.19352E-07  1170   0.513E-03    0.174E-03
DAV:  19    -0.303878653674E+02   -0.88307E-06   -0.36361E-08   834   0.227E-03    0.173E-03
DAV:  20    -0.303878645018E+02    0.86561E-06   -0.22122E-08   827   0.237E-03    0.832E-04
DAV:  21    -0.303878640169E+02    0.48492E-06   -0.63219E-09   799   0.811E-04    0.340E-04
DAV:  22    -0.303878636552E+02    0.36173E-06   -0.20257E-09   799   0.531E-04    0.120E-04
DAV:  23    -0.303878634347E+02    0.22044E-06   -0.66337E-10   799   0.248E-04    0.343E-05
DAV:  24    -0.303878633919E+02    0.42785E-07   -0.23522E-10   757   0.153E-04
   1 F= -.30387863E+02 E0= -.30387863E+02  d E =0.000000E+00  mag=     4.0000
