    4    4    1    2
  0.1133860E+02  0.4002931E-09  0.4002931E-09  0.4002931E-09  0.5000000E-15
  1.000000000000000E-004
  CAR 
 unknown system                          
   28  320   80
 
  0.0000000E+00  0.0000000E+00  0.0000000E+00  0.3125000E-02
   1       -3.560308     -3.513741
   2        3.614075      4.079509
   3        3.614075      4.079509
   4        3.614075      4.079509
   5        3.652233      4.704588
   6        3.652233      4.704588
   7        5.411762      6.510379
   8        5.411762      6.510380
   9        5.411762      6.510380
  10        6.808933      7.673003
  11        6.808933      7.673003
  12        6.808933      7.673003
  13        6.966093      8.262198
  14        6.966093      8.262198
  15        7.866730      9.870992
  16        7.866730      9.870992
  17       11.386740     11.724667
  18       11.386741     11.724668
  19       11.386741     11.724668
  20       11.879366     12.115195
  21       13.896539     14.678271
  22       13.896540     14.678273
  23       13.896540     14.678273
  24       17.132831     17.464299
  25       17.132832     17.675236
  26       17.132832     17.675238
  27       17.182743     17.675238
  28       19.401432     19.954526
  29       19.401432     19.954526
  30       26.915116     27.857191
  31       31.763207     31.777311
  32       31.763207     31.777311
  33       31.763207     31.777313
  34       32.072571     32.220642
  35       32.072571     32.220642
  36       32.072571     32.220642
  37       33.601953     33.606571
  38       33.601953     33.606571
  39       34.517381     34.935594
  40       34.517383     34.935597
  41       34.517383     34.935597
  42       44.184613     44.814651
  43       44.184613     44.814651
  44       45.436096     45.605889
  45       45.436096     45.605889
  46       45.436097     45.605890
  47       45.595945     45.703563
  48       45.595945     45.703563
  49       45.595945     45.703564
  50       45.636311     45.981961
  51       45.636311     45.981961
  52       45.636311     45.981963
  53       45.924507     46.013668
  54       45.924507     46.013669
  55       45.924507     46.013669
  56       46.289142     46.398912
  57       50.037337     50.111849
  58       50.037337     50.111849
  59       50.037338     50.111849
  60       50.046203     50.528565
  61       50.046204     50.528565
  62       50.046204     50.528567
  63       50.461082     50.654858
  64       52.875900     53.597693
  65       52.875900     53.597693
  66       52.875900     54.746336
  67       53.281029     54.746336
  68       53.281029     54.746337
  69       56.600419     57.336922
  70       56.600419     57.336922
  71       56.600419     57.336923
  72       57.198767     59.433072
  73       60.125790     61.294210
  74       60.125790     61.294210
  75       60.125791     61.294212
  76       61.744122     62.294280
  77       61.776140     62.427691
  78       69.155984     69.541414
  79       69.156356     69.542330
  80       69.262121     70.304841
 
  0.1282051E-01  0.0000000E+00  0.1282051E-01  0.3125000E-02
   1       -3.557331     -3.510800
   2        3.575975      4.071238
   3        3.615252      4.080541
   4        3.615252      4.080541
   5        3.653635      4.706058
   6        3.687553      4.709528
   7        5.408880      6.507015
   8        5.412251      6.510671
   9        5.412251      6.510672
  10        6.791666      7.664229
  11        6.805838      7.669236
  12        6.805839      7.669237
  13        6.966035      8.262133
  14        6.982514      8.270164
  15        7.865431      9.869078
  16        7.866558      9.869569
  17       11.351858     11.689738
  18       11.386449     11.728811
  19       11.386449     11.728812
  20       11.920523     12.158806
  21       13.890222     14.666741
  22       13.890223     14.666741
  23       13.891515     14.673788
  24       17.088449     17.478608
  25       17.148917     17.634506
  26       17.148918     17.692981
  27       17.197212     17.692983
  28       19.401907     19.954832
  29       19.444354     19.993897
  30       26.925465     27.867217
  31       31.646229     31.689117
  32       31.646229     31.689118
  33       31.691997     31.706730
  34       32.073172     32.221212
  35       32.160651     32.283065
  36       32.160651     32.283065
  37       33.517136     33.546326
  38       33.678214     33.682564
  39       34.549038     34.964213
  40       34.549040     34.964214
  41       34.597045     34.990551
  42       44.087776     44.701078
  43       44.172631     44.790432
  44       45.122293     45.227197
  45       45.122293     45.227197
  46       45.397401     45.638548
  47       45.397402     45.654160
  48       45.408062     45.654161
  49       45.616479     45.670767
  50       45.725322     45.981550
  51       45.766336     45.989426
  52       45.766336     45.989426
  53       45.923887     46.119547
  54       46.297643     46.411979
  55       46.297644     46.427565
  56       46.299167     46.427566
  57       49.822437     49.998489
  58       49.822437     49.998489
  59       49.997566     50.071928
  60       50.031726     50.517730
  61       50.283113     50.666224
  62       50.283113     50.666225
  63       50.471062     50.668445
  64       52.868699     53.602464
  65       52.868699     53.639955
  66       52.872432     54.722798
  67       53.286070     54.722799
  68       53.326666     54.743704
  69       56.591031     57.345331
  70       56.591031     57.345331
  71       56.619244     57.352277
  72       57.192226     59.423968
  73       60.125363     61.289739
  74       60.151278     61.313639
  75       60.151278     61.313640
  76       61.756222     62.315206
  77       61.791044     62.442641
  78       68.984936     69.391676
  79       69.144530     69.527706
  80       69.276912     70.271441
 
  0.2564103E-01  0.0000000E+00  0.2564103E-01  0.3125000E-02
   1       -3.548373     -3.501954
   2        3.520839      4.047180
   3        3.618778      4.083632
   4        3.618778      4.083632
   5        3.657838      4.710467
   6        3.734387      4.723632
   7        5.400176      6.496809
   8        5.413717      6.511546
   9        5.413717      6.511546
  10        6.752633      7.639694
  11        6.796608      7.658021
  12        6.796608      7.658021
  13        6.965861      8.261938
  14        7.019103      8.292431
  15        7.861536      9.863336
  16        7.866042      9.865302
  17       11.269602     11.612422
  18       11.385262     11.740988
  19       11.385263     11.740989
  20       12.021398     12.261988
  21       13.872205     14.633288
  22       13.872206     14.633289
  23       13.876733     14.660630
  24       16.964974     17.520529
  25       17.196501     17.521185
  26       17.196502     17.745246
  27       17.240281     17.745248
  28       19.403330     19.955749
  29       19.563523     20.103848
  30       26.956582     27.897340
  31       31.423890     31.495980
  32       31.423890     31.495981
  33       31.505814     31.522234
  34       32.074970     32.222913
  35       32.299076     32.401095
  36       32.299076     32.401095
  37       33.316695     33.388641
  38       33.879479     33.883229
  39       34.640989     35.047622
  40       34.640990     35.047624
  41       34.781996     35.132356
  42       43.846045     44.432945
  43       44.138923     44.727611
  44       44.626740     44.729668
  45       44.626740     44.729669
  46       45.171041     45.428703
  47       45.171041     45.428703
  48       45.330065     45.582104
  49       45.675915     45.726752
  50       45.922033     45.980320
  51       45.943635     46.184893
  52       45.952037     46.184893
  53       45.952038     46.364653
  54       46.321850     46.439968
  55       46.801729     46.931127
  56       46.801730     46.931128
  57       49.637983     49.816277
  58       49.637983     49.816277
  59       49.862271     49.960764
  60       50.015718     50.491550
  61       50.500097     50.702880
  62       50.537203     50.925078
  63       50.537203     50.925079
  64       52.848357     53.616769
  65       52.848358     53.760040
  66       52.862235     54.654153
  67       53.301179     54.654154
  68       53.454824     54.735985
  69       56.564164     57.369237
  70       56.564164     57.369238
  71       56.674876     57.397719
  72       57.172496     59.395603
  73       60.124643     61.281998
  74       60.226288     61.371432
  75       60.226289     61.371433
  76       61.791683     62.372608
  77       61.836000     62.487680
  78       68.603774     69.044334
  79       69.106709     69.484036
  80       69.339648     70.312648
 
  0.3846154E-01  0.0000000E+00  0.3846154E-01  0.3125000E-02
   1       -3.533450     -3.487218
   2        3.461533      4.009235
   3        3.624648      4.088778
   4        3.624648      4.088778
   5        3.664832      4.717803
   6        3.779989      4.745122
   7        5.385495      6.479447
   8        5.416166      6.513002
   9        5.416167      6.513002
  10        6.706003      7.603668
  11        6.781398      7.639608
  12        6.781399      7.639609
  13        6.965574      8.261614
  14        7.061981      8.325201
  15        7.855055      9.853779
  16        7.865182      9.858204
  17       11.168953     11.523637
  18       11.382260     11.760431
  19       11.382260     11.760431
  20       12.152368     12.393279
  21       13.845131     14.581087
  22       13.845132     14.581088
  23       13.853019     14.639630
  24       16.783834     17.351904
  25       17.273710     17.591039
  26       17.273711     17.829389
  27       17.310990     17.829390
  28       19.405701     19.957279
  29       19.737767     20.265982
  30       27.008656     27.947683
  31       31.165658     31.258512
  32       31.165659     31.258513
  33       31.252544     31.271383
  34       32.077945     32.225728
  35       32.425857     32.520096
  36       32.425857     32.520096
  37       33.065606     33.172596
  38       34.157641     34.160812
  39       34.785012     35.179112
  40       34.785013     35.179113
  41       35.007165     35.321882
  42       43.529122     44.096687
  43       44.089021     44.222802
  44       44.116087     44.222802
  45       44.116087     44.644133
  46       44.953513     45.207382
  47       44.953513     45.207382
  48       45.214842     45.455575
  49       45.768934     45.852744
  50       45.918967     45.978284
  51       46.115712     46.352911
  52       46.115713     46.352911
  53       46.221720     46.460402
  54       46.340474     46.662710
  55       47.295573     47.437297
  56       47.295573     47.437299
  57       49.509052     49.664866
  58       49.509052     49.664867
  59       49.666149     49.800107
  60       49.991115     50.456857
  61       50.546157     50.751324
  62       50.795685     51.218222
  63       50.795685     51.218222
  64       52.819223     53.640578
  65       52.819223     53.941888
  66       52.845998     54.545862
  67       53.326321     54.545863
  68       53.645373     54.723782
  69       56.523303     57.405229
  70       56.523303     57.405230
  71       56.764816     57.471409
  72       57.139308     59.345451
  73       60.125043     61.283815
  74       60.346913     61.466215
  75       60.346914     61.466216
  76       61.848216     62.453918
  77       61.911718     62.563362
  78       68.147976     68.617351
  79       69.041473     69.411756
  80       69.420469     70.468664
 
  0.5128205E-01  0.0000000E+00  0.5128205E-01  0.3125000E-02
   1       -3.512592     -3.466619
   2        3.398783      3.959700
   3        3.632845      4.095961
   4        3.632845      4.095961
   5        3.674603      4.728047
   6        3.823820      4.771885
   7        5.364607      6.454462
   8        5.419599      6.515032
   9        5.419599      6.515033
  10        6.657632      7.560942
  11        6.760464      7.614404
  12        6.760465      7.614404
  13        6.965173      8.261164
  14        7.105717      8.364387
  15        7.845997      9.840412
  16        7.863962      9.848286
  17       11.063278     11.435399
  18       11.375954     11.785833
  19       11.375954     11.785833
  20       12.298937     12.539710
  21       13.812954     14.514735
  22       13.812954     14.514736
  23       13.821600     14.612009
  24       16.566372     17.147729
  25       17.377837     17.686711
  26       17.377838     17.941734
  27       17.407910     17.941736
  28       19.409023     19.959422
  29       19.946300     20.461623
  30       27.081980     28.018426
  31       30.886272     30.987234
  32       30.886273     30.995736
  33       30.965452     30.995737
  34       32.082070     32.229627
  35       32.536277     32.629198
  36       32.536278     32.629198
  37       32.791840     32.924430
  38       34.479059     34.481925
  39       34.969772     35.349230
  40       34.969773     35.349232
  41       35.244446     35.532838
  42       43.174319     43.722069
  43       43.610997     43.722070
  44       43.610997     43.729037
  45       44.029450     44.553381
  46       44.738128     44.988987
  47       44.738128     44.988988
  48       45.073954     45.305017
  49       45.889382     45.975464
  50       45.914722     46.003464
  51       46.246989     46.452134
  52       46.246990     46.484469
  53       46.336575     46.484469
  54       46.522571     46.977256
  55       47.743586     47.913655
  56       47.743587     47.913656
  57       49.439727     49.588110
  58       49.470859     49.588111
  59       49.470859     49.617052
  60       49.959533     50.415592
  61       50.607263     50.811851
  62       51.048098     51.528696
  63       51.048098     51.528696
  64       52.790406     53.673843
  65       52.790407     54.167731
  66       52.824847     54.405773
  67       53.361437     54.405774
  68       53.877539     54.708052
  69       56.473162     57.449049
  70       56.473163     57.449049
  71       56.885060     57.570422
  72       57.092390     59.271205
  73       60.128063     61.307563
  74       60.507707     61.595819
  75       60.507708     61.595820
  76       61.922566     62.545165
  77       62.019288     62.670524
  78       67.663203     68.161686
  79       68.949220     69.310304
  80       69.533477     70.522782
 
  0.6410256E-01  0.0000000E+00  0.6410256E-01  0.3125000E-02
   1       -3.485839     -3.440199
   2        3.332760      3.900711
   3        3.643352      4.105166
   4        3.643352      4.105166
   5        3.687127      4.741172
   6        3.865962      4.802034
   7        5.337247      6.421319
   8        5.424016      6.517623
   9        5.424017      6.517623
  10        6.610148      7.515673
  11        6.734136      7.582924
  12        6.734136      7.582924
  13        6.964663      8.260590
  14        7.148227      8.406697
  15        7.834377      9.823267
  16        7.862369      9.835569
  17       10.957642     11.351838
  18       11.364397     11.815336
  19       11.364397     11.815337
  20       12.454289     12.695703
  21       13.780405     14.439610
  22       13.780405     14.439611
  23       13.783925     14.579176
  24       16.329059     16.923103
  25       17.505782     17.806453
  26       17.505783     18.078276
  27       17.529305     18.078278
  28       19.413294     19.962181
  29       20.173644     20.676408
  30       27.176891     28.109752
  31       30.592241     30.687590
  32       30.592241     30.715694
  33       30.662450     30.715695
  34       32.087301     32.234567
  35       32.506434     32.658111
  36       32.634043     32.728924
  37       32.634043     32.728925
  38       34.825274     34.828283
  39       35.182992     35.547363
  40       35.182993     35.547365
  41       35.482583     35.751168
  42       42.798528     43.233831
  43       43.118240     43.233832
  44       43.118240     43.344411
  45       43.966144     44.463193
  46       44.524666     44.773182
  47       44.524666     44.773183
  48       44.915476     45.138860
  49       45.909345     45.971888
  50       46.031867     46.171551
  51       46.292466     46.397568
  52       46.333902     46.568120
  53       46.333902     46.568120
  54       46.829721     47.294224
  55       48.102862     48.317245
  56       48.102862     48.317247
  57       49.212091     49.438062
  58       49.573536     49.639940
  59       49.573536     49.639941
  60       49.921886     50.367840
  61       50.682035     50.884443
  62       51.278321     51.849964
  63       51.278321     51.849965
  64       52.779125     53.716496
  65       52.779125     54.243442
  66       52.800263     54.243443
  67       53.406445     54.422974
  68       54.135643     54.690010
  69       56.418650     57.496734
  70       56.418650     57.496735
  71       57.030373     57.690939
  72       57.031790     59.172504
  73       60.134450     61.360557
  74       60.702707     61.757453
  75       60.702707     61.757453
  76       62.010907     62.633735
  77       62.160022     62.810151
  78       67.169141     67.700444
  79       68.828685     69.177614
  80       69.694725     70.711604
 
  0.7692308E-01  0.0000000E+00  0.7692308E-01  0.3125000E-02
   1       -3.453252     -3.408014
   2        3.263604      3.834037
   3        3.656145      4.116368
   4        3.656145      4.116368
   5        3.702377      4.757144
   6        3.906584      4.834103
   7        5.303176      6.379541
   8        5.429422      6.520759
   9        5.429422      6.520760
  10        6.565096      7.471080
  11        6.702812      7.545781
  12        6.702813      7.545781
  13        6.964045      8.259896
  14        7.188536      8.449784
  15        7.820218      9.802401
  16        7.860387      9.820083
  17       10.853905     11.274393
  18       11.345346     11.846493
  19       11.345346     11.846494
  20       12.613991     12.857760
  21       13.741498     14.361409
  22       13.752468     14.361410
  23       13.752469     14.542554
  24       16.084113     16.689240
  25       17.654419     17.948424
  26       17.654420     18.235189
  27       17.673314     18.235191
  28       19.418514     19.965555
  29       20.409353     20.900419
  30       27.293713     28.221776
  31       30.287661     30.381801
  32       30.287661     30.423097
  33       30.352938     30.423098
  34       32.093585     32.240493
  35       32.214549     32.381221
  36       32.723910     32.822307
  37       32.723910     32.822308
  38       35.186138     35.189880
  39       35.412735     35.762707
  40       35.412737     35.762709
  41       35.716102     35.969182
  42       42.410252     42.763046
  43       42.642860     42.763047
  44       42.642861     42.949654
  45       43.903971     44.378188
  46       44.313659     44.560302
  47       44.313659     44.560303
  48       44.744683     44.962159
  49       45.902894     45.967595
  50       46.192257     46.283175
  51       46.192269     46.353026
  52       46.365668     46.593118
  53       46.365669     46.593118
  54       47.135312     47.607280
  55       48.352323     48.606577
  56       48.352324     48.606578
  57       49.008359     49.285105
  58       49.843604     49.870275
  59       49.843604     49.870276
  60       49.878455     50.313356
  61       50.769663     50.969539
  62       51.461590     52.175974
  63       51.461590     52.175974
  64       52.774017     53.768450
  65       52.814092     54.070997
  66       52.814092     54.070998
  67       53.461238     54.671010
  68       54.409718     54.697411
  69       56.364197     57.545304
  70       56.364198     57.545304
  71       56.957948     57.828576
  72       57.194769     59.051379
  73       60.143636     61.444152
  74       60.926165     61.947904
  75       60.926165     61.947905
  76       62.108984     62.708504
  77       62.335227     62.983186
  78       66.678001     67.249329
  79       68.681307     69.014856
  80       69.868100     70.873752
 
  0.8974359E-01  0.0000000E+00  0.8974359E-01  0.3125000E-02
   1       -3.414905     -3.370140
   2        3.191472      3.761063
   3        3.671195      4.129540
   4        3.671195      4.129540
   5        3.720315      4.775920
   6        3.945858      4.867021
   7        5.262242      6.328849
   8        5.435818      6.524419
   9        5.435818      6.524420
  10        6.523543      7.429497
  11        6.666944      7.503648
  12        6.666944      7.503648
  13        6.963329      8.259091
  14        7.226129      8.492068
  15        7.803548      9.777883
  16        7.857984      9.801864
  17       10.752593     11.203425
  18       11.316526     11.876261
  19       11.316526     11.876262
  20       12.773702     13.022587
  21       13.695746     14.285919
  22       13.733897     14.285921
  23       13.733897     14.503455
  24       15.841429     16.454911
  25       17.820842     18.110811
  26       17.820843     18.409106
  27       17.838083     18.409108
  28       19.424682     19.969547
  29       20.646394     21.126855
  30       27.432638     28.354424
  31       29.975392     30.075024
  32       29.975392     30.121144
  33       30.042103     30.121145
  34       31.919083     32.098294
  35       32.100855     32.247336
  36       32.809956     32.912490
  37       32.809956     32.912491
  38       35.555491     35.560704
  39       35.647559     35.984429
  40       35.647560     35.984431
  41       35.941578     36.182146
  42       42.014631     42.315197
  43       42.190392     42.315198
  44       42.190392     42.548856
  45       43.846868     44.301425
  46       44.105678     44.350801
  47       44.105678     44.350802
  48       44.565034     44.778069
  49       45.895439     45.962628
  50       46.024840     46.101836
  51       46.337689     46.545668
  52       46.337690     46.555399
  53       46.367575     46.555399
  54       47.434832     47.912676
  55       48.532401     48.805855
  56       48.532402     48.805856
  57       48.846761     49.172253
  58       49.829128     50.252022
  59       50.235915     50.254981
  60       50.235916     50.254982
  61       50.869642     51.067563
  62       51.573020     52.494478
  63       51.573020     52.494478
  64       52.747882     53.829595
  65       52.929024     53.908012
  66       52.929024     53.908012
  67       53.525687     54.652347
  68       54.694078     54.984546
  69       56.313188     57.592734
  70       56.313189     57.592734
  71       56.871872     57.978788
  72       57.372104     58.911667
  73       60.153060     61.554120
  74       61.172906     62.163735
  75       61.172907     62.163736
  76       62.211743     62.759471
  77       62.545967     63.190334
  78       66.200731     66.822331
  79       68.505024     68.821345
  80       70.094665     70.945264
 
  0.1025641E+00  0.0000000E+00  0.1025641E+00  0.3125000E-02
   1       -3.370871     -3.326645
   2        3.116599      3.682911
   3        3.688463      4.144644
   4        3.688463      4.144644
   5        3.740901      4.797449
   6        3.983926      4.900021
   7        5.214440      6.269271
   8        5.443200      6.528567
   9        5.443200      6.528568
  10        6.486236      7.392459
  11        6.627020      7.457234
  12        6.627020      7.457234
  13        6.962517      8.258177
  14        7.260716      8.532516
  15        7.784397      9.749838
  16        7.855147      9.780953
  17       10.653589     11.138775
  18       11.275931     11.901051
  19       11.275931     11.901051
  20       12.927870     13.186202
  21       13.647945     14.218898
  22       13.728790     14.218899
  23       13.728791     14.463015
  24       15.610546     16.227960
  25       18.002486     18.291925
  26       18.002487     18.597202
  27       18.021855     18.597203
  28       19.431797     19.974159
  29       20.880106     21.351181
  30       27.593631     28.507287
  31       29.657506     29.770302
  32       29.657507     29.812150
  33       29.733003     29.812151
  34       31.622106     31.812608
  35       32.109030     32.255015
  36       32.895256     33.002080
  37       32.895257     33.002081
  38       35.875831     35.936626
  39       35.875832     36.201129
  40       35.929031     36.201131
  41       36.156251     36.386618
  42       41.615599     41.897332
  43       41.767914     41.897332
  44       41.767915     42.145220
  45       43.798165     44.145129
  46       43.901241     44.145129
  47       43.901241     44.235279
  48       44.378810     44.588580
  49       45.787619     45.854824
  50       45.887055     45.957035
  51       46.254297     46.460447
  52       46.254297     46.460447
  53       46.555721     46.748170
  54       47.725441     48.207832
  55       48.697108     48.978897
  56       48.697109     48.978898
  57       48.735405     49.103858
  58       49.773655     50.184026
  59       50.669692     50.718887
  60       50.669692     50.718888
  61       50.981567     51.178895
  62       51.620512     52.770088
  63       51.620513     52.770088
  64       52.723861     53.798777
  65       53.138768     53.798777
  66       53.138768     53.899811
  67       53.599647     54.635295
  68       54.985713     55.280480
  69       56.268245     57.638023
  70       56.268245     57.638023
  71       56.775058     58.137332
  72       57.556771     58.757846
  73       60.158481     61.681075
  74       61.438474     62.401477
  75       61.438474     62.401478
  76       62.312460     62.778832
  77       62.792800     63.431870
  78       65.750267     66.434688
  79       68.299727     68.597274
  80       70.428322     70.987049
 
  0.1153846E+00  0.0000000E+00  0.1153846E+00  0.3125000E-02
   1       -3.321227     -3.277604
   2        3.039270      3.600504
   3        3.707909      4.161640
   4        3.707910      4.161641
   5        3.764084      4.821670
   6        4.020881      4.932528
   7        5.159949      6.201206
   8        5.451569      6.533161
   9        5.451569      6.533162
  10        6.453641      7.360805
  11        6.583553      7.407262
  12        6.583553      7.407263
  13        6.961612      8.257160
  14        7.292144      8.570468
  15        7.762803      9.718412
  16        7.851854      9.757397
  17       10.556416     11.079986
  18       11.222143     11.916917
  19       11.222143     11.916918
  20       13.068404     13.343081
  21       13.599178     14.165951
  22       13.740279     14.165952
  23       13.740280     14.422163
  24       15.402501     16.016692
  25       18.197169     18.490235
  26       18.197170     18.797184
  27       18.223024     18.797185
  28       19.439855     19.979390
  29       21.107356     21.570310
  30       27.776252     28.679331
  31       29.335525     29.469551
  32       29.335526     29.497825
  33       29.427564     29.497826
  34       31.325399     31.527071
  35       32.118018     32.263437
  36       32.981997     33.093053
  37       32.981997     33.093054
  38       36.084645     36.314394
  39       36.084646     36.399897
  40       36.303294     36.399899
  41       36.357316     36.579568
  42       41.216957     41.519029
  43       41.385005     41.519030
  44       41.385006     41.741888
  45       43.700825     43.943720
  46       43.700825     43.943720
  47       43.760890     44.181902
  48       44.187466     44.394852
  49       45.487568     45.550817
  50       45.877838     45.950888
  51       46.126291     46.320241
  52       46.126291     46.320242
  53       46.755221     46.959729
  54       48.005008     48.490406
  55       48.672187     49.076248
  56       48.871019     49.159279
  57       48.871019     49.159280
  58       49.711837     50.110002
  59       51.031239     51.206921
  60       51.031240     51.206922
  61       51.104943     51.303885
  62       51.695362     52.916687
  63       51.695363     52.916688
  64       52.704113     53.841717
  65       53.431335     53.841717
  66       53.431336     53.978983
  67       53.682984     54.621111
  68       55.283276     55.583175
  69       56.231431     57.681082
  70       56.231431     57.681083
  71       56.669331     58.301042
  72       57.744621     58.594129
  73       60.153746     61.806973
  74       61.719149     62.657835
  75       61.719150     62.657836
  76       62.401310     62.766195
  77       63.075656     63.707558
  78       65.343541     66.102437
  79       68.065382     68.343071
  80       70.540809     70.619509
 
  0.1282051E+00  0.0000000E+00  0.1282051E+00  0.3125000E-02
   1       -3.266096     -3.223137
   2        2.959815      3.514629
   3        3.729479      4.180476
   4        3.729480      4.180476
   5        3.789805      4.848512
   6        4.056762      4.964073
   7        5.099144      6.125391
   8        5.460902      6.538129
   9        5.460903      6.538129
  10        6.425969      7.334805
  11        6.537060      7.354447
  12        6.537060      7.354447
  13        6.960620      8.256044
  14        7.320346      8.605516
  15        7.738809      9.683757
  16        7.848072      9.731257
  17       10.460368     11.026417
  18       11.154532     11.919940
  19       11.154532     11.919940
  20       13.183349     13.485192
  21       13.550326     14.132208
  22       13.770329     14.132209
  23       13.770330     14.381624
  24       15.231492     15.831170
  25       18.403036     18.704331
  26       18.403036     19.007174
  27       18.440111     19.007175
  28       19.448851     19.985239
  29       21.326100     21.782193
  30       27.979398     28.868356
  31       29.010570     29.174045
  32       29.010571     29.179445