       N       E                     dE             d eps       ncg     rms          rms(c)
DAV:   1     0.191043722642E+03    0.19104E+03   -0.12899E+04  2528   0.172E+03
DAV:   2    -0.198038757817E+02   -0.21085E+03   -0.20138E+03  2520   0.350E+02
DAV:   3    -0.311913746050E+02   -0.11387E+02   -0.10471E+02  2830   0.107E+02
DAV:   4    -0.316367888323E+02   -0.44541E+00   -0.43552E+00  3521   0.192E+01
DAV:   5    -0.316482882803E+02   -0.11499E-01   -0.11415E-01  3328   0.309E+00    0.199E+01
DAV:   6    -0.331773631536E+02   -0.15291E+01   -0.56415E+01  3084   0.116E+02    0.236E+01
DAV:   7    -0.365600023388E+02   -0.33826E+01   -0.68174E+01  3497   0.126E+02    0.329E+01
DAV:   8    -0.290854808065E+02    0.74745E+01   -0.15055E+01  3685   0.984E+01    0.592E+00
DAV:   9    -0.293730620267E+02   -0.28758E+00   -0.27077E+00  3224   0.126E+01    0.447E+00
DAV:  10    -0.296116763289E+02   -0.23861E+00   -0.25083E-01  4159   0.779E+00    0.453E+00
DAV:  11    -0.299440603486E+02   -0.33238E+00   -0.20349E-01  4118   0.705E+00    0.419E+00
DAV:  12    -0.303220286098E+02   -0.37797E+00   -0.28099E-01  3424   0.737E+00    0.381E+00
DAV:  13    -0.303630289424E+02   -0.41000E-01   -0.45441E-01  4467   0.140E+01    0.318E+00
DAV:  14    -0.301811823488E+02    0.18185E+00   -0.30673E-01  3939   0.957E+00    0.521E+00
DAV:  15    -0.304270120110E+02   -0.24583E+00   -0.40829E-01  4255   0.148E+01    0.523E-01
DAV:  16    -0.304073252587E+02    0.19687E-01   -0.40640E-02  3449   0.362E+00    0.205E+00
DAV:  17    -0.304265514505E+02   -0.19226E-01   -0.80058E-03  3426   0.149E+00    0.949E-01
DAV:  18    -0.304311803420E+02   -0.46289E-02   -0.76732E-03  3567   0.128E+00    0.183E-01
DAV:  19    -0.304314513440E+02   -0.27100E-03   -0.78712E-04  3785   0.527E-01    0.772E-02
DAV:  20    -0.304314826148E+02   -0.31271E-04   -0.59674E-05  3779   0.940E-02    0.223E-02
DAV:  21    -0.304314824042E+02    0.21062E-06   -0.70448E-06  3548   0.625E-02    0.158E-02
DAV:  22    -0.304314838316E+02   -0.14275E-05   -0.83385E-07  3302   0.118E-02    0.845E-03
DAV:  23    -0.304314834305E+02    0.40114E-06   -0.51994E-07  3188   0.182E-02    0.596E-03
DAV:  24    -0.304314835562E+02   -0.12568E-06   -0.25514E-07  2636   0.644E-03    0.785E-04
DAV:  25    -0.304314836879E+02   -0.13172E-06   -0.49676E-08  1618   0.350E-03    0.369E-04
DAV:  26    -0.304314835577E+02    0.13024E-06   -0.16881E-08  1565   0.283E-03    0.911E-04
DAV:  27    -0.304314836098E+02   -0.52130E-07   -0.55924E-09  1575   0.136E-03
   1 F= -.30431484E+02 E0= -.30431484E+02  d E =0.000000E+00  mag=    -4.9999
